! TOUCHSTONE file generated by CST DESIGN STUDIO
! Date and time: Mon Feb 10 16:57:08 2025
! Project name: C:\Work\MatlabApps\UnitCellType2OptimizationMatlab\CST\unitcell.cst
! Tree item: Tasks\Sweep1\SPara1\S-Parameters
! Header version: 2024
! Port assignment regex: !\s*Touchstone port\s*([0-9]+)\s*=\s*(CST MWS port|CST DES external port|CST DES block port)\s*(.+)\s* \(\"(.*)\"\)(\s*mode\s*([0-9]+))?.*
! Touchstone port assignment:
! Touchstone port 1 = CST DES external port 1 ("")
# GHz S MA R 50
7                    0.994266049      -13.238251
7.002                0.994227315     -13.2565177
7.004                0.994188493     -13.2747856
7.006                0.994149584     -13.2930548
7.008                0.994110588     -13.3113251
7.01                 0.994080081     -13.3289887
7.012                0.994049508     -13.3466531
7.014                0.994018872     -13.3643182
7.016                0.993988172     -13.3819839
7.018                0.993969648     -13.3993461
7.02                 0.993951088     -13.4167091
7.022                0.993932491     -13.4340729
7.024                0.993913857     -13.4514376
7.026                0.993908314     -13.4688297
7.028                0.993902758     -13.4862227
7.03                  0.99389719     -13.5036168
7.032                0.993891608     -13.5210118
7.034                0.993897886     -13.5387272
7.036                0.993904177     -13.5564432
7.038                 0.99391048     -13.5741597
7.04                 0.993916797     -13.5918766
7.042                0.993932295     -13.6101501
7.044                0.993947835     -13.6284236
7.046                0.993963417     -13.6466972
7.048                 0.99397904     -13.6649709
7.05                 0.994000153     -13.6839696
7.052                0.994021328     -13.7029686
7.054                0.994042564     -13.7219679
7.056                0.994063862     -13.7409675
7.058                0.994086008     -13.7607971
7.06                 0.994108223     -13.7806271
7.062                0.994130507     -13.8004575
7.064                0.994152862     -13.8202882
7.066                 0.99417068     -13.8409447
7.068                0.994188567     -13.8616014
7.07                 0.994206523     -13.8822582
7.072                0.994224548     -13.9029153
7.074                0.994232683     -13.9242542
7.076                 0.99424087     -13.9455937
7.078                0.994249107     -13.9669338
7.08                 0.994257395     -13.9882745
7.082                0.994251862     -14.0100033
7.084                0.994246341     -14.0317334
7.086                0.994240832     -14.0534648
7.088                0.994235335     -14.0751976
7.09                 0.994214963     -14.0969225
7.092                0.994194559     -14.1186488
7.094                0.994174123     -14.1403766
7.096                0.994153654     -14.1621059
7.098                0.994120791     -14.1834427
7.1                  0.994087862     -14.2047807
7.102                0.994054867       -14.22612
7.104                0.994021808     -14.2474606
7.106                0.993981951     -14.2681322
7.108                0.993942012     -14.2888051
7.11                  0.99390199     -14.3094795
7.112                0.993861886     -14.3301553
7.114                0.993822075     -14.3500808
7.116                0.993782179     -14.3700077
7.118                0.993742197     -14.3899362
7.12                  0.99370213     -14.4098661
7.122                0.993668893     -14.4291747
7.124                0.993635585     -14.4484844
7.126                0.993602206     -14.4677952
7.128                0.993568758     -14.4871071
7.13                 0.993546481     -14.5060716
7.132                 0.99352416     -14.5250368
7.134                0.993501796      -14.544003
7.136                0.993479388     -14.5629699
7.138                0.993469656     -14.5819183
7.14                 0.993459909     -14.6008675
7.142                0.993450145     -14.6198177
7.144                0.993440364     -14.6387688
7.146                0.993442337     -14.6580046
7.148                0.993444318      -14.677241
7.15                 0.993446305     -14.6964783
7.152                0.993448301     -14.7157163
7.154                0.993459534     -14.7354733
7.156                0.993470801     -14.7552306
7.158                  0.9934821     -14.7749882
7.16                 0.993493433     -14.7947461
7.162                0.993510504     -14.8151925
7.164                0.993527631     -14.8356391
7.166                0.993544812     -14.8560859
7.168                0.993562048     -14.8765331
7.17                 0.993580854     -14.8977646
7.172                0.993599724     -14.9189968
7.174                 0.99361866     -14.9402295
7.176                 0.99363766     -14.9614629
7.178                0.993653462     -14.9834973
7.18                 0.993669328     -15.0055325
7.182                0.993685257     -15.0275682
7.184                0.993701249     -15.0496046
7.186                0.993709095     -15.0723413
7.188                 0.99371699     -15.0950787
7.19                 0.993724936     -15.1178169
7.192                 0.99373293     -15.1405558
7.194                0.993728766     -15.1637575
7.196                0.993724621     -15.1869606
7.198                0.993720497     -15.2101649
7.2                   0.99371639     -15.2333705
7.202                0.993698273     -15.2566947
7.204                0.993680134     -15.2800205
7.206                0.993661973      -15.303348
7.208                0.993643789     -15.3266773
7.21                 0.993612948     -15.3497522
7.212                0.993582048     -15.3728286
7.214                0.993551089     -15.3959066
7.216                0.993520071     -15.4189861
7.218                0.993480906     -15.4415092
7.22                 0.993441661     -15.4640337
7.222                0.993402337     -15.4865596
7.224                0.993362934     -15.5090869
7.226                0.993321934     -15.5309197
7.228                 0.99328085     -15.5527541
7.23                 0.993239681     -15.5745901
7.232                0.993198428     -15.5964276
7.234                0.993162264     -15.6176372
7.236                0.993126026     -15.6388483
7.238                0.993089711     -15.6600608
7.24                 0.993053323     -15.6812748
7.242                0.993026994     -15.7020975
7.244                0.993000614     -15.7229212
7.246                0.992974181      -15.743746
7.248                0.992947696     -15.7645719
7.25                 0.992933495     -15.7853339
7.252                0.992919271     -15.8060969
7.254                0.992905024     -15.8268608
7.256                0.992890753     -15.8476256
7.258                0.992888299     -15.8686373
7.26                 0.992885846     -15.8896499
7.262                0.992883396     -15.9106634
7.264                0.992880949     -15.9316778
7.266                0.992887989     -15.9531878
7.268                0.992895054     -15.9746984
7.27                 0.992902145     -15.9962095
7.272                0.992909262     -16.0177212
7.274                0.992922457     -16.0398989
7.276                0.992935699     -16.0620769
7.278                0.992948989     -16.0842553
7.28                 0.992962325     -16.1064341
7.282                0.992977796     -16.1293798
7.284                0.992993327     -16.1523263
7.286                0.993008918     -16.1752735
7.288                0.993024569     -16.1982213
7.29                 0.993038002     -16.2219542
7.292                0.993051494     -16.2456882
7.294                0.993065046     -16.2694231
7.296                0.993078657     -16.2931589
7.298                0.993085555      -16.317612
7.3                    0.9930925     -16.3420661
7.302                0.993099494     -16.3665212
7.304                0.993106535     -16.3909774
7.306                0.993102862     -16.4159629
7.308                0.993099212     -16.4409497
7.31                 0.993095587     -16.4659379
7.312                0.993091983     -16.4909275
7.314                 0.99307528     -16.5161482
7.316                0.993058564     -16.5413707
7.318                0.993041834      -16.566595
7.32                 0.993025091      -16.591821
7.322                0.992995607     -16.6169275
7.324                 0.99296607     -16.6420358
7.326                0.992936481     -16.6671458
7.328                0.992906841     -16.6922577
7.33                 0.992867892     -16.7169324
7.332                0.992828864     -16.7416087
7.334                 0.99278976     -16.7662866
7.336                0.992750578     -16.7909661
7.338                0.992707974       -16.81502
7.34                 0.992665284     -16.8390756
7.342                0.992622507     -16.8631328
7.344                0.992579645     -16.8871916
7.346                0.992540013     -16.9106277
7.348                  0.9925003     -16.9340655
7.35                 0.992460506     -16.9575049
7.352                0.992420632     -16.9809461
7.354                0.992389504     -17.0039589
7.356                0.992358316     -17.0269729
7.358                0.992327065     -17.0499884
7.36                 0.992295753     -17.0730053
7.362                0.992276243     -17.0959017
7.364                0.992256701     -17.1187992
7.366                0.992237125     -17.1416978
7.368                0.992217515     -17.1645975
7.37                 0.992209885     -17.1876979
7.372                 0.99220225     -17.2107993
7.374                0.992194609     -17.2339017
7.376                0.992186963     -17.2570052
7.378                0.992189239     -17.2805852
7.38                 0.992191533     -17.3041661
7.382                0.992193846     -17.3277478
7.384                0.992196177     -17.3513304
7.386                0.992205083     -17.3755703
7.388                0.992214028     -17.3998108
7.39                 0.992223012     -17.4240518
7.392                0.992232035     -17.4482934
7.394                 0.99224376     -17.4732962
7.396                0.992255539     -17.4982998
7.398                0.992267372      -17.523304
7.4                  0.992279259      -17.548309
7.402                0.992289784     -17.5740979
7.404                0.992300366      -17.599888
7.406                0.992311004     -17.6256792
7.408                0.992321699     -17.6514715
7.41                 0.992326852     -17.6779998
7.412                0.992332051     -17.7045293
7.414                0.992337297     -17.7310603
7.416                0.992342588     -17.7575926
7.418                 0.99233851      -17.784713
7.42                 0.992334457     -17.8118349
7.422                0.992330429     -17.8389584
7.424                0.992326425     -17.8660834
7.426                0.992310377     -17.8935411
7.428                0.992294323     -17.9210007
7.43                 0.992278261     -17.9484622
7.432                0.992262192     -17.9759255
7.434                0.992233579      -18.003405
7.436                 0.99220492     -18.0308866
7.438                0.992176217     -18.0583702
7.44                 0.992147469     -18.0858558
7.442                0.992108595      -18.113033
7.444                0.992069647     -18.1402119
7.446                0.992030623     -18.1673927
7.448                0.991991525     -18.1945753
7.45                 0.991947314     -18.2212233
7.452                0.991903014     -18.2478729
7.454                0.991858626     -18.2745243
7.456                 0.99181415     -18.3011773
7.458                0.991771004     -18.3272377
7.46                 0.991727772        -18.3533
7.462                0.991684453      -18.379364
7.464                 0.99164105     -18.4054299
7.466                0.991604922     -18.4310481
7.468                0.991568724      -18.456668
7.47                 0.991532456     -18.4822895
7.472                0.991496117     -18.5079128
7.474                0.991470893     -18.5333616
7.476                0.991445624     -18.5588117
7.478                 0.99142031     -18.5842632
7.48                 0.991394951      -18.609716
7.482                0.991381654     -18.6353316
7.484                0.991368342     -18.6609483
7.486                0.991355015     -18.6865662
7.488                0.991341673     -18.7121851
7.49                 0.991338774     -18.7382592
7.492                0.991335887     -18.7643343
7.494                0.991333011     -18.7904104
7.496                0.991330146     -18.8164875
7.498                0.991334445       -18.84323
7.5                  0.991338776     -18.8699732
7.502                0.991343139     -18.8967173
7.504                0.991347532     -18.9234621
7.506                0.991355172     -18.9509815
7.508                0.991362858     -18.9785017
7.51                 0.991370591     -19.0060227
7.512                 0.99137837     -19.0335445
7.514                0.991385372     -19.0618757
7.516                0.991392425     -19.0902081
7.518                0.991399531     -19.1185417
7.52                  0.99140669     -19.1468765
7.522                0.991409141     -19.1759721
7.524                0.991411636     -19.2050694
7.526                0.991414176     -19.2341682
7.528                 0.99141676     -19.2632688
7.53                 0.991411001      -19.293009
7.532                0.991405266      -19.322751
7.534                0.991399556     -19.3524949
7.536                0.991393869     -19.3822406
7.538                0.991377014     -19.4124143
7.54                 0.991360153     -19.4425901
7.542                0.991343289     -19.4727678
7.544                 0.99132642     -19.5029476
7.546                0.991297307     -19.5332659
7.548                0.991268152     -19.5635864
7.55                 0.991238958     -19.5939091
7.552                0.991209723     -19.6242341
7.554                0.991169696     -19.6543824
7.556                0.991129595     -19.6845328
7.558                 0.99108942     -19.7146853
7.56                 0.991049171     -19.7448399
7.562                0.991002329     -19.7745583
7.564                0.990955394     -19.8042785
7.566                0.990908365     -19.8340006
7.568                0.990861242     -19.8637245
7.57                 0.990813537      -19.892904
7.572                0.990765736     -19.9220854
7.574                 0.99071784     -19.9512686
7.576                0.990669849     -19.9804537
7.578                0.990627527     -20.0091736
7.58                 0.990585124     -20.0378954
7.582                0.990542639     -20.0666191
7.584                0.990500071     -20.0953447
7.586                0.990467828     -20.1238483
7.588                0.990435526     -20.1523536
7.59                 0.990403166     -20.1808606
7.592                0.990370746     -20.2093693
7.594                0.990350503     -20.2379915
7.596                0.990330232     -20.2666151
7.598                0.990309931     -20.2952399
7.6                  0.990289602     -20.3238662
7.602                 0.99028046     -20.3529247
7.604                0.990271318     -20.3819843
7.606                0.990262177     -20.4110451
7.608                0.990253037      -20.440107
7.61                 0.990251995     -20.4698487
7.612                0.990250976     -20.4995914
7.614                0.990249981      -20.529335
7.616                0.990249009     -20.5590797
7.618                0.990252116     -20.5896379
7.62                 0.990255262      -20.620197
7.622                0.990258447      -20.650757
7.624                0.990261671     -20.6813179
7.626                0.990264834     -20.7127331
7.628                0.990268043     -20.7441494
7.63                   0.9902713     -20.7755669
7.632                0.990274603     -20.8069856
7.634                0.990273896       -20.83922
7.636                0.990273231      -20.871456
7.638                 0.99027261     -20.9036939
7.64                  0.99027203     -20.9359335
7.642                0.990263941     -20.9688822
7.644                0.990255878     -21.0018329
7.646                0.990247839     -21.0347858
7.648                0.990239825     -21.0677409
7.65                 0.990221424     -21.1012219
7.652                 0.99020302     -21.1347052
7.654                0.990184614     -21.1681907
7.656                0.990166205     -21.2016786
7.658                0.990135883      -21.235436
7.66                 0.990105522     -21.2691958
7.662                0.990075125     -21.3029581
7.664                0.990044691     -21.3367228
7.666                 0.99000299     -21.3704524
7.668                0.989961217     -21.4041844
7.67                 0.989919372     -21.4379188
7.672                0.989877454     -21.4716556
7.674                0.989827544     -21.5050868
7.676                0.989777536       -21.53852
7.678                0.989727429     -21.5719553
7.68                 0.989677222     -21.6053927
7.682                0.989624498     -21.6383575
7.684                0.989571667     -21.6713243
7.686                0.989518729     -21.7042929
7.688                0.989465685     -21.7372635
7.69                 0.989416426     -21.7697845
7.692                0.989367071     -21.8023074
7.694                0.989317619     -21.8348324
7.696                0.989268071     -21.8673593
7.698                0.989227632     -21.8996318
7.7                  0.989187118     -21.9319063
7.702                 0.98914653     -21.9641828
7.704                0.989105868     -21.9964612
7.706                 0.98907719      -22.028806
7.708                0.989048467     -22.0611524
7.71                 0.989019698     -22.0935005
7.712                0.988990884     -22.1258502
7.714                0.988973862     -22.1586141
7.716                0.988956825     -22.1913793
7.718                0.988939774     -22.2241457
7.72                  0.98892271     -22.2569136
7.722                0.988914703     -22.2903716
7.724                0.988906707     -22.3238307
7.726                0.988898723      -22.357291
7.728                0.988890751     -22.3907524
7.73                 0.988887756     -22.4250824
7.732                0.988884791     -22.4594135
7.734                0.988881854     -22.4937456
7.736                0.988878946     -22.5280788
7.738                0.988876613     -22.5633312
7.74                 0.988874318     -22.5985848
7.742                 0.98887206     -22.6338396
7.744                0.988869839     -22.6690955
7.746                0.988864126       -22.70524
7.748                0.988858449     -22.7413862
7.75                  0.98885281     -22.7775341
7.752                0.988847206     -22.8136839
7.754                0.988834616     -22.8506217
7.756                0.988822049     -22.8875619
7.758                0.988809505     -22.9245044
7.76                 0.988796983     -22.9614493
7.762                0.988774598     -22.9990213
7.764                0.988752207     -23.0365961
7.766                0.988729812     -23.0741734
7.768                0.988707413     -23.1117534
7.77                 0.988673379     -23.1497255
7.772                0.988639305     -23.1877003
7.774                0.988605192     -23.2256777
7.776                0.988571041     -23.2636579
7.778                0.988525292     -23.3017457
7.78                 0.988479466     -23.3398361
7.782                0.988433564     -23.3779291
7.784                0.988387586     -23.4160247
7.786                0.988332487      -23.453945
7.788                0.988277279     -23.4918676
7.79                 0.988221963     -23.5297926
7.792                0.988166539     -23.5677199
7.794                0.988106815     -23.6052715
7.796                0.988046967     -23.6428251
7.798                0.987986996     -23.6803808
7.8                    0.9879269     -23.7179384
7.802                0.987868717     -23.7550786
7.804                0.987810417     -23.7922207
7.806                   0.987752     -23.8293648
7.808                0.987693465     -23.8665108
7.81                 0.987642794     -23.9033853
7.812                0.987592029     -23.9402618
7.814                0.987541169     -23.9771405
7.816                0.987490213     -24.0140213
7.818                0.987450976      -24.050931
7.82                 0.987411674     -24.0878427
7.822                0.987372306     -24.1247564
7.824                0.987332874     -24.1616719
7.826                0.987305959     -24.1989783
7.828                0.987279011     -24.2362862
7.83                  0.98725203     -24.2735957
7.832                0.987225018     -24.3109066
7.834                0.987208395     -24.3489355
7.836                0.987191768     -24.3869656
7.838                0.987175139     -24.4249969
7.84                 0.987158506     -24.4630293
7.842                0.987148175     -24.5020012
7.844                0.987137862     -24.5409741
7.846                0.987127565     -24.5799481
7.848                0.987117285     -24.6189231
7.85                 0.987108568     -24.6589275
7.852                0.987099878     -24.6989329
7.854                0.987091215     -24.7389395
7.856                0.987082577     -24.7789473
7.858                0.987071071     -24.8199635
7.86                 0.987059593     -24.8609812
7.862                0.987048143     -24.9020006
7.864                0.987036721     -24.9430216
7.866                0.987018653     -24.9849553
7.868                0.987000605     -25.0268913
7.87                 0.986982576     -25.0688297
7.872                0.986964567     -25.1107704
7.874                0.986936975     -25.1534709
7.876                0.986909379     -25.1961742
7.878                0.986881777     -25.2388804
7.88                 0.986854172     -25.2815894
7.882                 0.98681496     -25.3248394
7.884                0.986775707     -25.3680923
7.886                0.986736413     -25.4113482
7.888                 0.98669708      -25.454607
7.89                 0.986645705     -25.4981407
7.892                 0.98659425     -25.5416772
7.894                0.986542713     -25.5852165
7.896                0.986491095     -25.6287586
7.898                0.986429122     -25.6722909
7.9                  0.986367028     -25.7158256
7.902                0.986304815     -25.7593628
7.904                0.986242481     -25.8029024
7.906                0.986173948     -25.8461965
7.908                0.986105269     -25.8894927
7.91                 0.986036444     -25.9327908
7.912                0.985967473     -25.9760909
7.914                0.985898239      -26.019047
7.916                0.985828858     -26.0620048
7.918                0.985759329     -26.1049644
7.92                 0.985689654     -26.1479258
7.922                0.985626067     -26.1906282
7.924                0.985562356     -26.2333325
7.926                 0.98549852     -26.2760387
7.928                0.985434561     -26.3187469
7.93                 0.985381518     -26.3614565
7.932                0.985328384     -26.4041681
7.934                0.985275159     -26.4468816
7.936                0.985221843     -26.4895972
7.938                0.985181452      -26.532688
7.94                 0.985141004     -26.5757804
7.942                  0.9851005     -26.6188745
7.944                0.985059941     -26.6619703
7.946                0.985031007     -26.7058061
7.948                0.985002047      -26.749643
7.95                 0.984973063     -26.7934811
7.952                0.984944052     -26.8373205
7.954                0.984922818     -26.8821842
7.956                0.984901581     -26.9270489
7.958                0.984880341     -26.9719145
7.96                 0.984859096     -27.0167809
7.962                 0.98484061     -27.0628008
7.964                 0.98482213     -27.1088215
7.966                0.984803656     -27.1548431
7.968                0.984785189     -27.2008655
7.97                 0.984764601     -27.2480532
7.972                0.984744024     -27.2952421
7.974                0.984723455     -27.3424321
7.976                0.984702896     -27.3896235
7.978                0.984675987     -27.4378852
7.98                 0.984649084     -27.4861489
7.982                0.984622188     -27.5344146
7.984                0.984595298     -27.5826823
7.986                0.984558963     -27.6318725
7.988                0.984522617     -27.6810656
7.99                 0.984486262     -27.7302614
7.992                0.984449898     -27.7794599
7.994                0.984401822     -27.8293733
7.996                0.984353703     -27.8792898
7.998                0.984305541     -27.9292093
8                    0.984257338     -27.9791319
8.002                  0.9841967     -28.0295117
8.004                0.984135974     -28.0798943
8.006                 0.98407516     -28.1302799
8.008                0.984014259     -28.1806684
8.01                 0.983941974     -28.2312449
8.012                0.983869549     -28.2818239
8.014                0.983796985     -28.3324052
8.016                0.983724282     -28.3829889
8.018                0.983643622     -28.4334894
8.02                 0.983562783     -28.4839916
8.022                0.983481765     -28.5344954
8.024                0.983400568     -28.5850009
8.026                0.983317043     -28.6352855
8.028                0.983233327     -28.6855714
8.03                  0.98314942     -28.7358584
8.032                0.983065322     -28.7861467
8.034                0.982985449     -28.8362318
8.036                0.982905408     -28.8863182
8.038                0.982825199     -28.9364059
8.04                 0.982744821     -28.9864949
8.042                0.982674409     -29.0366028
8.044                0.982603871     -29.0867121
8.046                 0.98253321      -29.136823
8.048                0.982462424     -29.1869354
8.05                 0.982404741     -29.2374397
8.052                0.982346981     -29.2879454
8.054                0.982289143     -29.3384526
8.056                0.982231229     -29.3889614
8.058                0.982186138     -29.4402579
8.06                 0.982141003     -29.4915554
8.062                0.982095824     -29.5428539
8.064                0.982050601     -29.5941534
8.066                0.982014867     -29.6465969
8.068                0.981979104     -29.6990408
8.07                 0.981943312      -29.751485
8.072                0.981907489     -29.8039299
8.074                0.981875938     -29.8577092
8.076                0.981844356     -29.9114881
8.078                0.981812743     -29.9652668
8.08                 0.981781098     -30.0190453
8.082                0.981748186     -30.0742111
8.084                0.981715246     -30.1293767
8.086                0.981682276     -30.1845422
8.088                0.981649278     -30.2397076
8.09                  0.98161013     -30.2961914
8.092                 0.98157096     -30.3526763
8.094                0.981531769     -30.4091621
8.096                0.981492554      -30.465649
8.098                0.981443514     -30.5232791
8.1                  0.981394453     -30.5809111
8.102                 0.98134537     -30.6385448
8.104                0.981296266     -30.6961804
8.106                0.981234851     -30.7547628
8.108                0.981173405     -30.8133476
8.11                  0.98111193     -30.8719345
8.112                0.981050426     -30.9305236
8.114                0.980975431     -30.9898132
8.116                0.980900369     -31.0491055
8.118                0.980825245     -31.1084002
8.12                 0.980750059     -31.1676974
8.122                0.980662012     -31.2273989
8.124                0.980573819     -31.2871024
8.126                0.980485481      -31.346808
8.128                0.980396998     -31.4065155
8.13                 0.980298655     -31.4663677
8.132                0.980200048     -31.5262197
8.134                0.980101175     -31.5860715
8.136                0.980002037     -31.6459232
8.138                0.979898352     -31.7057254
8.14                 0.979794348      -31.765525
8.142                0.979690021      -31.825322
8.144                0.979585368     -31.8851169
8.146                0.979482821     -31.9448288
8.148                0.979380016      -32.004539
8.15                 0.979276951     -32.0642477
8.152                0.979173626     -32.1239547
8.154                 0.97907885     -32.1837472
8.156                0.978983889     -32.2435395
8.158                0.978888742     -32.3033317
8.16                 0.978793411     -32.3631238
8.162                0.978710926     -32.4233417
8.164                 0.97862839     -32.4835575
8.166                0.978545804     -32.5437714
8.168                0.978463169     -32.6039834
8.17                 0.978394054     -32.6650819
8.172                0.978325105     -32.7261776
8.174                0.978256323     -32.7872711
8.176                0.978187713     -32.8483633
8.178                0.978129529     -32.9107339
8.18                 0.978071658     -32.9731059
8.182                0.978014101     -33.0354799
8.184                 0.97795686     -33.0978565
8.186                0.977905672     -33.1618097
8.188                0.977854118     -33.2257545
8.19                 0.977802188     -33.2896921
8.192                0.977749873     -33.3536234
8.194                0.977712446     -33.4196868
8.196                0.977666246     -33.4852279
8.198                0.977609191     -33.5506005
8.2                  0.977542074     -33.6161563