! TOUCHSTONE file generated by CST DESIGN STUDIO
! Date and time: Mon Feb 10 16:57:09 2025
! Project name: C:\Work\MatlabApps\UnitCellType2OptimizationMatlab\CST\unitcell.cst
! Tree item: Tasks\Sweep1\SPara1\S-Parameters
! Header version: 2024
! Port assignment regex: !\s*Touchstone port\s*([0-9]+)\s*=\s*(CST MWS port|CST DES external port|CST DES block port)\s*(.+)\s* \(\"(.*)\"\)(\s*mode\s*([0-9]+))?.*
! Touchstone port assignment:
! Touchstone port 1 = CST DES external port 1 ("")
# GHz S MA R 50
7                    0.993713405     -12.6552118
7.002                0.993676224     -12.6726749
7.004                0.993638944     -12.6901384
7.006                0.993601566     -12.7076026
7.008                0.993564091     -12.7250672
7.01                 0.993537737     -12.7419614
7.012                0.993511336     -12.7588552
7.014                 0.99348489     -12.7757486
7.016                0.993458398     -12.7926416
7.018                0.993445985     -12.8093359
7.02                 0.993433554     -12.8260309
7.022                0.993421103     -12.8427266
7.024                0.993408634     -12.8594229
7.026                0.993409991     -12.8762878
7.028                0.993411329     -12.8931538
7.03                  0.99341265     -12.9100209
7.032                0.993413952     -12.9268892
7.034                0.993426559     -12.9442163
7.036                 0.99343918     -12.9615431
7.038                0.993451814     -12.9788698
7.04                 0.993464461     -12.9961962
7.042                0.993484687     -13.0141802
7.044                0.993504969     -13.0321634
7.046                0.993525309     -13.0501458
7.048                0.993545707     -13.0681277
7.05                 0.993569492     -13.0868791
7.052                0.993593337     -13.1056307
7.054                0.993617243     -13.1243825
7.056                0.993641209     -13.1431344
7.058                0.993663952     -13.1627059
7.06                 0.993686749     -13.1822773
7.062                0.993709602     -13.2018485
7.064                0.993732509     -13.2214195
7.066                0.993749104     -13.2417642
7.068                 0.99376577     -13.2621079
7.07                 0.993782508     -13.2824506
7.072                0.993799318     -13.3027924
7.074                0.993804889     -13.3237324
7.076                0.993810516     -13.3446725
7.078                0.993816199     -13.3656127
7.08                 0.993821939     -13.3865531
7.082                0.993813098      -13.407773
7.084                0.993804248     -13.4289943
7.086                 0.99379539     -13.4502171
7.088                0.993786523     -13.4714414
7.09                 0.993762758     -13.4925351
7.092                0.993738936     -13.5136297
7.094                0.993715057     -13.5347252
7.096                0.993691123     -13.5558216
7.098                 0.99365557     -13.5764044
7.1                  0.993619949     -13.5969875
7.102                0.993584263     -13.6175707
7.104                 0.99354851     -13.6381542
7.106                 0.99350757     -13.6579701
7.108                0.993466547      -13.677787
7.11                 0.993425441      -13.697605
7.112                0.993384251     -13.7174241
7.114                0.993345646     -13.7364418
7.116                0.993306943     -13.7554608
7.118                0.993268143     -13.7744811
7.12                 0.993229245     -13.7935027
7.122                0.993199631     -13.8119194
7.124                 0.99316995     -13.8303364
7.126                0.993140203     -13.8487537
7.128                0.993110391     -13.8671711
7.13                 0.993093688     -13.8853247
7.132                0.993076964     -13.9034785
7.134                0.993060217     -13.9216325
7.136                0.993043449     -13.9397868
7.138                0.993040279     -13.9580482
7.14                 0.993037102     -13.9763107
7.142                0.993033918     -13.9945741
7.144                0.993030726     -14.0128385
7.146                0.993038998     -14.0315198
7.148                0.993047277     -14.0502016
7.15                 0.993055564     -14.0688838
7.152                0.993063859     -14.0875665
7.154                0.993080023     -14.1068726
7.156                0.993096232     -14.1261783
7.158                0.993112487     -14.1454833
7.16                 0.993128788      -14.164788
7.162                0.993148811     -14.1848332
7.164                0.993168899     -14.2048783
7.166                0.993189053     -14.2249234
7.168                0.993209272     -14.2449684
7.17                 0.993228964     -14.2657923
7.172                0.993248712     -14.2866167
7.174                0.993268513     -14.3074417
7.176                0.993288369     -14.3282671
7.178                0.993303243     -14.3498412
7.18                 0.993318172     -14.3714153
7.182                0.993333154     -14.3929893
7.184                 0.99334819     -14.4145632
7.186                0.993353774     -14.4367529
7.188                 0.99335941     -14.4589426
7.19                   0.9933651     -14.4811323
7.192                0.993370841     -14.5033221
7.194                0.993363711      -14.525869
7.196                0.993356592     -14.5484172
7.198                0.993349484     -14.5709666
7.2                  0.993342386     -14.5935172
7.202                0.993321254     -14.6160699
7.204                0.993300076     -14.6386241
7.206                0.993278854     -14.6611797
7.208                0.993257587     -14.6837367
7.21                 0.993224365     -14.7059261
7.212                0.993191075      -14.728116
7.214                0.993157717     -14.7503064
7.216                0.993124292     -14.7724973
7.218                0.993084121     -14.7940381
7.22                 0.993043876     -14.8155795
7.222                0.993003558     -14.8371216
7.224                0.992963165     -14.8586642
7.226                0.992923182     -14.8794573
7.228                 0.99288311     -14.9002519
7.23                 0.992842949     -14.9210478
7.232                0.992802699     -14.9418451
7.234                  0.9927698     -14.9620163
7.236                 0.99273682     -14.9821884
7.238                0.992703762     -15.0023615
7.24                 0.992670625     -15.0225355
7.242                0.992649483     -15.0423823
7.244                0.992628305     -15.0622293
7.246                0.992607091     -15.0820766
7.248                 0.99258584     -15.1019242
7.25                 0.992577944     -15.1218177
7.252                0.992570045     -15.1417118
7.254                0.992562141     -15.1616066
7.256                0.992554233     -15.1815022
7.258                 0.99255809     -15.2017691
7.26                 0.992561957     -15.2220369
7.262                0.992565833     -15.2423054
7.264                0.992569719     -15.2625748
7.266                0.992581959     -15.2834454
7.268                0.992594235     -15.3043158
7.27                 0.992606546     -15.3251862
7.272                0.992618893     -15.3460566
7.274                 0.99263543     -15.3676526
7.276                0.992652031     -15.3892483
7.278                0.992668694     -15.4108437
7.28                 0.992685421     -15.4324388
7.282                0.992702171     -15.4548027
7.284                0.992718981     -15.4771673
7.286                0.992735852     -15.4995324
7.288                0.992752782      -15.521898
7.29                 0.992765646     -15.5449987
7.292                0.992778556        -15.5681
7.294                0.992791512      -15.591202
7.296                0.992804514     -15.6143047
7.298                0.992809475     -15.6380384
7.3                  0.992814479     -15.6617724
7.302                0.992819525     -15.6855067
7.304                0.992824612     -15.7092413
7.306                 0.99281828     -15.7333986
7.308                0.992811969     -15.7575568
7.31                 0.992805677     -15.7817159
7.312                0.992799403      -15.805876
7.314                0.992780008     -15.8301522
7.316                0.992760582       -15.85443
7.318                0.992741127     -15.8787093
7.32                 0.992721641     -15.9029901
7.322                 0.99269008     -15.9270413
7.324                0.992658453     -15.9510933
7.326                 0.99262676     -15.9751463
7.328                0.992595001     -15.9992002
7.33                 0.992555223     -16.0227261
7.332                0.992515372     -16.0462523
7.334                0.992475448     -16.0697789
7.336                0.992435452     -16.0933058
7.338                0.992393839     -16.1161504
7.34                 0.992352145      -16.138996
7.342                 0.99231037     -16.1618426
7.344                0.992268515     -16.1846901
7.346                0.992231972     -16.2069064
7.348                0.992195343      -16.229124
7.35                 0.992158631      -16.251343
7.352                0.992121835     -16.2735634
7.354                0.992095686     -16.2954023
7.356                0.992069484      -16.317242
7.358                0.992043226     -16.3390823
7.36                 0.992016915     -16.3609232
7.362                0.992003599     -16.3827381
7.364                0.991990272     -16.4045534
7.366                0.991976932     -16.4263692
7.368                0.991963579     -16.4481855
7.37                  0.99196237     -16.4703184
7.372                0.991961172     -16.4924521
7.374                0.991959985     -16.5145866
7.376                0.991958809     -16.5367219
7.378                0.991966649     -16.5594387
7.38                 0.991974519     -16.5821559
7.382                0.991982418     -16.6048734
7.384                0.991990347     -16.6275913
7.386                0.992003112     -16.6510327
7.388                0.992015932     -16.6744738
7.39                 0.992028809     -16.6979146
7.392                0.992041742     -16.7213551
7.394                0.992055274     -16.7455672
7.396                0.992068871     -16.7697796
7.398                0.992082531     -16.7939923
7.4                  0.992096256     -16.8182052
7.402                0.992106679     -16.8431565
7.404                0.992117148     -16.8681088
7.406                0.992127663     -16.8930622
7.408                0.992138224     -16.9180166
7.41                 0.992141829     -16.9436192
7.412                0.992145464     -16.9692226
7.414                0.992149132     -16.9948269
7.416                 0.99215283     -17.0204321
7.418                0.992146411     -17.0465144
7.42                  0.99214001     -17.0725976
7.422                0.992133627     -17.0986816
7.424                0.992127262     -17.1247666
7.426                0.992108814     -17.1510661
7.428                0.992090349     -17.1773671
7.43                 0.992071866     -17.2036695
7.432                0.992053366     -17.2299733
7.434                0.992022969     -17.2561812
7.436                0.991992512     -17.2823904
7.438                0.991961997     -17.3086008
7.44                 0.991931422     -17.3348125
7.442                0.991891965      -17.360624
7.444                0.991852433     -17.3864359
7.446                0.991812827     -17.4122482
7.448                0.991773148     -17.4380609
7.45                 0.991730048     -17.4632798
7.452                0.991686873     -17.4884992
7.454                0.991643621      -17.513719
7.456                0.991600294     -17.5389393
7.458                0.991560242     -17.5635509
7.46                 0.991520107     -17.5881639
7.462                0.991479891     -17.6127781
7.464                0.991439592     -17.6373936
7.466                0.991408415     -17.6615948
7.468                 0.99137717      -17.685797
7.47                 0.991345856     -17.7100004
7.472                0.991314473     -17.7342049
7.474                0.991295493     -17.7583145
7.476                0.991276485     -17.7824247
7.478                0.991257449     -17.8065354
7.48                 0.991238384     -17.8306467
7.482                0.991231728     -17.8550262
7.484                 0.99122508     -17.8794064
7.486                 0.99121844     -17.9037872
7.488                0.991211807     -17.9281686
7.49                 0.991214923     -17.9531074
7.492                0.991218066     -17.9780468
7.494                0.991221237     -18.0029867
7.496                0.991224436     -18.0279272
7.498                0.991233223      -18.053603
7.5                  0.991242059     -18.0792786
7.502                0.991250945     -18.1049541
7.504                0.991259879     -18.1306294
7.506                0.991269995     -18.1570977
7.508                0.991280176     -18.1835658
7.51                 0.991290422     -18.2100338
7.512                0.991300731     -18.2365017
7.514                0.991308232     -18.2637389
7.516                0.991315784      -18.290977
7.518                0.991323387     -18.3182159
7.52                 0.991331041     -18.3454556
7.522                0.991332445     -18.3733683
7.524                0.991333876     -18.4012822
7.526                0.991335333     -18.4291974
7.528                0.991336816     -18.4571139
7.53                 0.991329126     -18.4855536
7.532                0.991321447     -18.5139944
7.534                0.991313777     -18.5424363
7.536                0.991306117     -18.5708793
7.538                0.991287209     -18.5996247
7.54                 0.991268288     -18.6283714
7.542                0.991249353     -18.6571194
7.544                0.991230404     -18.6858688
7.546                0.991199851     -18.7146382
7.548                0.991169245      -18.743409
7.55                 0.991138587     -18.7721812
7.552                0.991107878     -18.8009547
7.554                0.991067621     -18.8294549
7.556                0.991027287     -18.8579556
7.558                0.990986878     -18.8864569
7.56                 0.990946393     -18.9149588
7.562                0.990900972     -18.9429613
7.564                0.990855475     -18.9709639
7.566                0.990809899     -18.9989664
7.568                0.990764245     -19.0269689
7.57                 0.990719876      -19.054405
7.572                0.990675427     -19.0818418
7.574                0.990630897     -19.1092794
7.576                0.990586287     -19.1367176
7.578                0.990549152      -19.163714
7.58                 0.990511938     -19.1907115
7.582                0.990474645     -19.2177104
7.584                0.990437274     -19.2447105
7.586                0.990411571     -19.2715552
7.588                0.990385818     -19.2984007
7.59                 0.990360017      -19.325247
7.592                0.990334167     -19.3520942
7.594                0.990320997     -19.3791499
7.596                0.990307821     -19.4062061
7.598                0.990294639     -19.4332628
7.6                  0.990281453       -19.46032
7.602                0.990278943     -19.4879072
7.604                0.990276458     -19.5154948
7.606                0.990273996     -19.5430829
7.608                 0.99027156     -19.5706715
7.61                 0.990275794     -19.5990114
7.612                0.990280073     -19.6273512
7.614                0.990284396      -19.655691
7.616                0.990288763     -19.6840308
7.618                0.990295198     -19.7132079
7.62                 0.990301696     -19.7423846
7.622                0.990308255     -19.7715609
7.624                0.990314877     -19.8007366
7.626                0.990319328     -19.8307323
7.628                0.990323836     -19.8607283
7.63                 0.990328402     -19.8907246
7.632                0.990333026     -19.9207211
7.634                0.990331935     -19.9514454
7.636                0.990330874     -19.9821711
7.638                 0.99032984     -20.0128981
7.64                 0.990328835     -20.0436264
7.642                0.990319353     -20.0749404
7.644                0.990309874     -20.1062558
7.646                0.990300397     -20.1375725
7.648                0.990290921     -20.1688908
7.65                 0.990270911     -20.2005983
7.652                0.990250884     -20.2323071
7.654                 0.99023084     -20.2640171
7.656                0.990210779     -20.2957284
7.658                0.990179428     -20.3275792
7.66                  0.99014803     -20.3594313
7.662                0.990116585     -20.3912846
7.664                0.990085094     -20.4231392
7.666                0.990043606     -20.4548518
7.668                0.990002042      -20.486565
7.67                 0.989960404     -20.5182788
7.672                 0.98991869     -20.5499933
7.674                0.989870676     -20.5813304
7.676                0.989822581     -20.6126671
7.678                0.989774403     -20.6440035
7.68                 0.989726144     -20.6753395
7.682                0.989677239      -20.706174
7.684                0.989628254     -20.7370083
7.686                 0.98957919     -20.7678425
7.688                0.989530046     -20.7986765
7.69                 0.989486482     -20.8290753
7.692                0.989442836      -20.859475
7.694                0.989399107     -20.8898756
7.696                0.989355296     -20.9202771
7.698                0.989321993     -20.9504794
7.7                  0.989288623     -20.9806827
7.702                0.989255184     -21.0108871
7.704                0.989221676     -21.0410926
7.706                0.989200801      -21.071449
7.708                0.989179899     -21.1018058
7.71                 0.989158969     -21.1321632
7.712                0.989138013     -21.1625211
7.714                0.989128506     -21.1933843
7.716                0.989119013     -21.2242477
7.718                0.989109535     -21.2551113
7.72                 0.989100071     -21.2859753
7.722                0.989098383     -21.3176003
7.724                0.989096735     -21.3492251
7.726                0.989095127     -21.3808498
7.728                0.989093558     -21.4124743
7.73                 0.989095014     -21.4449942
7.732                0.989096527     -21.4775134
7.734                0.989098099     -21.5100317
7.736                0.989099727     -21.5425492
7.738                0.989099762      -21.575956
7.74                 0.989099858     -21.6093622
7.742                0.989100015     -21.6427677
7.744                0.989100231     -21.6761726
7.746                0.989095089     -21.7103785
7.748                0.989089981     -21.7445851
7.75                 0.989084906     -21.7787925
7.752                0.989079865     -21.8130005
7.754                0.989066694     -21.8478659
7.756                0.989053519     -21.8827328
7.758                 0.98904034     -21.9176012
7.76                 0.989027156     -21.9524712
7.762                0.989003861     -21.9878175
7.764                0.988980536     -22.0231652
7.766                 0.98895718     -22.0585143
7.768                0.988933795     -22.0938648
7.77                 0.988899381     -22.1294609
7.772                0.988864914     -22.1650581
7.774                0.988830395     -22.2006564
7.776                0.988795825     -22.2362558
7.778                0.988750964     -22.2718397
7.78                 0.988706026      -22.307424
7.782                0.988661011     -22.3430087
7.784                0.988615918      -22.378594
7.786                0.988563478     -22.4139191
7.788                0.988510949     -22.4492435
7.79                 0.988458331      -22.484567
7.792                0.988405623     -22.5198898
7.794                0.988350561      -22.554798
7.796                0.988295414     -22.5897049
7.798                0.988240182     -22.6246104
7.8                  0.988184865     -22.6595146
7.802                0.988133305     -22.6940078
7.804                 0.98808166     -22.7285007
7.806                0.988029929     -22.7629933
7.808                0.987978113     -22.7974857
7.81                 0.987935622     -22.8317524
7.812                0.987893047       -22.86602
7.814                0.987850387     -22.9002884
7.816                0.987807643     -22.9345578
7.818                0.987777381     -22.9689303
7.82                 0.987747065     -23.0033034
7.822                0.987716693     -23.0376773
7.824                0.987686266     -23.0720518
7.826                0.987668174     -23.1069003
7.828                0.987650075     -23.1417489
7.83                  0.98763197     -23.1765975
7.832                0.987613859     -23.2114462
7.834                0.987604967     -23.2470793
7.836                0.987596108      -23.282712
7.838                0.987587281      -23.318344
7.84                 0.987578487     -23.3539756
7.842                0.987574081     -23.3905725
7.844                0.987569732      -23.427168
7.846                0.987565439     -23.4637621
7.848                  0.9875612     -23.5003549
7.85                 0.987556285     -23.5379473
7.852                0.987551434     -23.5755378
7.854                0.987546648     -23.6131265
7.856                0.987541926     -23.6507134
7.858                0.987532292     -23.6892188
7.86                 0.987522703     -23.7277235
7.862                0.987513157     -23.7662275
7.864                0.987503656     -23.8047309
7.866                0.987486157     -23.8440065
7.868                0.987468656      -23.883283
7.87                 0.987451152     -23.9225607
7.872                0.987433646     -23.9618394
7.874                0.987406173     -24.0017083
7.876                0.987378657     -24.0415788
7.878                0.987351096     -24.0814509
7.88                 0.987323493     -24.1213246
7.882                0.987284867     -24.1615687
7.884                0.987246174      -24.201814
7.886                0.987207415     -24.2420603
7.888                0.987168588     -24.2823078
7.89                   0.9871191     -24.3226826
7.892                0.987069527     -24.3630574
7.894                0.987019869     -24.4034324
7.896                0.986970127     -24.4438075
7.898                0.986911936     -24.4840666
7.9                  0.986853651     -24.5243241
7.902                 0.98679527     -24.5645801
7.904                0.986736793     -24.6048344
7.906                0.986674214     -24.6447889
7.908                0.986611544     -24.6847404
7.91                 0.986548784     -24.7246888
7.912                0.986485933     -24.7646342
7.914                0.986424787     -24.8042315
7.916                0.986363554     -24.8438264
7.918                0.986302232     -24.8834189
7.92                 0.986240823      -24.923009
7.922                0.986187073     -24.9623771
7.924                0.986133227      -25.001745
7.926                0.986079283     -25.0411125
7.928                0.986025244     -25.0804798
7.93                  0.98598303     -25.1199126
7.932                0.985940728     -25.1593461
7.934                0.985898339     -25.1987804
7.936                0.985855862     -25.2382154
7.938                0.985826292     -25.2780984
7.94                 0.985796677     -25.3179816
7.942                0.985767018     -25.3578649
7.944                0.985737315     -25.3977486
7.946                0.985718199     -25.4384311
7.948                0.985699094     -25.4791125
7.95                 0.985679998      -25.519793
7.952                0.985660912     -25.5604724
7.954                0.985647711     -25.6021968
7.956                0.985634561     -25.6439187
7.958                0.985621463     -25.6856381
7.96                 0.985608416     -25.7273549
7.962                0.985595788     -25.7701918
7.964                0.985583231     -25.8130248
7.966                0.985570744      -25.855854
7.968                0.985558328     -25.8986794
7.97                 0.985541538     -25.9425744
7.972                0.985524804      -25.986466
7.974                0.985508127     -26.0303544
7.976                0.985491505     -26.0742395
7.978                0.985466937      -26.119042
7.98                 0.985442372     -26.1638436
7.982                 0.98541781     -26.2086445
7.984                0.985393252     -26.2534447
7.986                0.985358685     -26.2989741
7.988                0.985324059     -26.3445051
7.99                 0.985289376     -26.3900375
7.992                0.985254634     -26.4355713
7.994                0.985208746     -26.4816161
7.996                 0.98516276     -26.5276626
7.998                0.985116676      -26.573711
8                    0.985070494     -26.6197611
8.002                0.985013377     -26.6660851
8.004                0.984956146     -26.7124093
8.006                0.984898803     -26.7587337
8.008                0.984841347     -26.8050584
8.01                 0.984774607      -26.851432
8.012                0.984707759     -26.8978026
8.014                0.984640803     -26.9441703
8.016                 0.98457374     -26.9905351
8.018                0.984501018     -27.0367392
8.02                  0.98442821     -27.0829373
8.022                0.984355315     -27.1291292
8.024                0.984282333      -27.175315
8.026                0.984209146     -27.2212615
8.028                0.984135881     -27.2672015
8.03                 0.984062536      -27.313135
8.032                0.983989113     -27.3590619
8.034                0.983921618     -27.4048136
8.036                0.983854022     -27.4505617
8.038                0.983786327     -27.4963064
8.04                 0.983718532     -27.5420475
8.042                0.983661762     -27.5878603
8.044                0.983604875     -27.6336732
8.046                 0.98354787     -27.6794861
8.048                0.983490746     -27.7252992
8.05                 0.983446912     -27.7715603
8.052                0.983402979     -27.8178232
8.054                0.983358946     -27.8640879
8.056                0.983314813     -27.9103543
8.058                0.983282666     -27.9574492
8.06                 0.983250472     -28.0045444
8.062                0.983218232     -28.0516397
8.064                0.983185945     -28.0987353
8.066                0.983161317     -28.1469799
8.068                0.983136725     -28.1952203
8.07                 0.983112168     -28.2434564
8.072                0.983087647     -28.2916886
8.074                0.983064869     -28.3412119
8.076                0.983042204     -28.3907264
8.078                0.983019652     -28.4402322
8.08                 0.982997209     -28.4897292
8.082                0.982970859      -28.540508
8.084                0.982944625     -28.5912778
8.086                0.982918506     -28.6420385
8.088                0.982892501     -28.6927899
8.09                 0.982858357     -28.7446884
8.092                0.982824244     -28.7965817
8.094                0.982790162     -28.8484694
8.096                0.982756109     -28.9003518
8.098                0.982711432     -28.9531542
8.1                  0.982666691     -29.0059562
8.102                0.982621887      -29.058758
8.104                0.982577021     -29.1115595
8.106                0.982520413     -29.1650525
8.108                0.982463665     -29.2185514
8.11                 0.982406774      -29.272056
8.112                0.982349739     -29.3255664
8.114                0.982281062     -29.3795243
8.116                0.982212175     -29.4334898
8.118                 0.98214308     -29.4874627
8.12                 0.982073772     -29.5414431
8.122                0.981994226     -29.5956259
8.124                0.981914499     -29.6498075
8.126                0.981834591      -29.703988
8.128                0.981754503     -29.7581674
8.13                 0.981667042     -29.8123783
8.132                0.981579597     -29.8665724
8.134                0.981492166     -29.9207495
8.136                0.981404743     -29.9749093
8.138                0.981314487      -30.028997
8.14                 0.981224409     -30.0830626
8.142                0.981134502     -30.1371054
8.144                0.981044754     -30.1911247
8.146                0.980958364      -30.245087
8.148                0.980871995     -30.2990377
8.15                 0.980785645     -30.3529767
8.152                0.980699314     -30.4069037
8.154                0.980622565     -30.4609582
8.156                0.980545684     -30.5150084
8.158                 0.98046867     -30.5690543
8.16                 0.980391524      -30.623096
8.162                0.980327681     -30.6775776
8.164                0.980263702     -30.7320761
8.166                0.980199574     -30.7865915
8.168                0.980135285     -30.8411236
8.17                  0.98008468     -30.8964536
8.172                0.980033754     -30.9518344
8.174                0.979982455     -31.0072648
8.176                0.979930741     -31.0627441
8.178                0.979890124     -31.1193075
8.18                 0.979848797     -31.1759347
8.182                0.979806717      -31.232624
8.184                0.979763841      -31.289374
8.186                 0.97972445     -31.3475965
8.188                0.979685965       -31.40576
8.19                 0.979648347     -31.4638623
8.192                0.979611557     -31.5219013
8.194                0.979525053     -31.5836026
8.196                0.979480532     -31.6444543
8.198                0.979461843     -31.7035456
8.2                  0.979448996     -31.7605078