! TOUCHSTONE file generated by CST DESIGN STUDIO
! Date and time: Mon Feb 10 16:57:11 2025
! Project name: C:\Work\MatlabApps\UnitCellType2OptimizationMatlab\CST\unitcell.cst
! Tree item: Tasks\Sweep1\SPara1\S-Parameters
! Header version: 2024
! Port assignment regex: !\s*Touchstone port\s*([0-9]+)\s*=\s*(CST MWS port|CST DES external port|CST DES block port)\s*(.+)\s* \(\"(.*)\"\)(\s*mode\s*([0-9]+))?.*
! Touchstone port assignment:
! Touchstone port 1 = CST DES external port 1 ("")
# GHz S MA R 50
7                    0.993031206     -11.9763066
7.002                0.992996538     -11.9930815
7.004                0.992961748     -12.0098557
7.006                0.992926835     -12.0266292
7.008                0.992891799     -12.0434019
7.01                 0.992870952     -12.0596569
7.012                0.992850089     -12.0759097
7.014                0.992829208     -12.0921604
7.016                0.992808313     -12.1084089
7.018                0.992803581     -12.1245918
7.02                 0.992798849     -12.1407752
7.022                0.992794119     -12.1569591
7.024                 0.99278939     -12.1731436
7.026                0.992799141     -12.1896666
7.028                0.992808846     -12.2061906
7.03                 0.992818505     -12.2227157
7.032                0.992828116     -12.2392417
7.034                0.992848168     -12.2563857
7.036                0.992868224     -12.2735277
7.038                0.992888284     -12.2906676
7.04                 0.992908348     -12.3078057
7.042                0.992933943     -12.3257083
7.044                0.992959623     -12.3436087
7.046                0.992985387     -12.3615068
7.048                0.993011234     -12.3794027
7.05                 0.993038009      -12.398105
7.052                0.993064837     -12.4168071
7.054                0.993091717      -12.435509
7.056                 0.99311865     -12.4542108
7.058                0.993142136     -12.4737084
7.06                 0.993165647     -12.4932046
7.062                0.993189184     -12.5126991
7.064                0.993212748      -12.532192
7.066                 0.99322818     -12.5523962
7.068                0.993243698     -12.5725971
7.07                 0.993259302     -12.5927947
7.072                0.993274994      -12.612989
7.074                0.993278067     -12.6336905
7.076                0.993281213     -12.6543913
7.078                0.993284434     -12.6750914
7.08                 0.993287729     -12.6957909
7.082                0.993275687     -12.7166539
7.084                  0.9932636     -12.7375183
7.086                 0.99325147     -12.7583842
7.088                0.993239294     -12.7792514
7.09                 0.993212242     -12.7998568
7.092                0.993185096     -12.8204618
7.094                0.993157857     -12.8410662
7.096                0.993130524     -12.8616703
7.098                0.993092429      -12.881629
7.1                  0.993054276     -12.9015863
7.102                0.993016068     -12.9215421
7.104                0.992977802     -12.9414965
7.106                0.992936151     -12.9605737
7.108                0.992894419     -12.9796518
7.11                 0.992852606     -12.9987308
7.112                0.992810713     -13.0178108
7.114                0.992774044     -13.0360343
7.116                 0.99273725     -13.0542589
7.118                0.992700329     -13.0724846
7.12                 0.992663283     -13.0907114
7.122                0.992638344     -13.1083593
7.124                 0.99261334      -13.126006
7.126                 0.99258827     -13.1436515
7.128                0.992563138      -13.161296
7.13                 0.992553249     -13.1787807
7.132                0.992543367     -13.1962649
7.134                0.992533493     -13.2137486
7.136                0.992523626     -13.2312319
7.138                0.992528245     -13.2489718
7.14                 0.992532858     -13.2667128
7.142                0.992537464      -13.284455
7.144                0.992542063     -13.3021984
7.146                0.992557604     -13.3205094
7.148                0.992573139     -13.3388201
7.15                 0.992588669     -13.3571305
7.152                0.992604193     -13.3754407
7.154                0.992625852     -13.3944863
7.156                0.992647577     -13.4135298
7.158                0.992669366     -13.4325712
7.16                  0.99269122     -13.4516106
7.162                0.992714427     -13.4714377
7.164                0.992737716     -13.4912642
7.166                0.992761085       -13.51109
7.168                0.992784536     -13.5309152
7.17                 0.992805186     -13.5515009
7.172                0.992825867     -13.5720868
7.174                0.992846579     -13.5926728
7.176                0.992867322     -13.6132589
7.178                0.992881288     -13.6345292
7.18                 0.992895294      -13.655798
7.182                 0.99290934     -13.6770651
7.184                0.992923427     -13.6983306
7.186                0.992926793     -13.7201195
7.188                0.992930226     -13.7419073
7.19                 0.992933727     -13.7636938
7.192                0.992937295     -13.7854792
7.194                0.992927322     -13.8075109
7.196                 0.99291735     -13.8295438
7.198                0.992907379     -13.8515779
7.2                  0.992897408     -13.8736132
7.202                0.992873441     -13.8955295
7.204                0.992849393     -13.9174467
7.206                0.992825264     -13.9393647
7.208                0.992801054     -13.9612837
7.21                 0.992765661     -13.9827165
7.212                0.992730194     -14.0041481
7.214                0.992694654     -14.0255787
7.216                0.992659041     -14.0470082
7.218                0.992618187     -14.0676878
7.22                 0.992577275     -14.0883672
7.222                0.992536305     -14.1090463
7.224                0.992495278     -14.1297252
7.226                0.992456876     -14.1495959
7.228                0.992418372     -14.1694682
7.23                 0.992379765      -14.189342
7.232                0.992341057     -14.2092172
7.234                0.992312242     -14.2284727
7.236                0.992283329     -14.2477285
7.238                0.992254319     -14.2669846
7.24                 0.992225214      -14.286241
7.242                0.992210236     -14.3052484
7.244                0.992195239     -14.3242551
7.246                0.992180223     -14.3432611
7.248                0.992165188     -14.3622665
7.25                 0.992164585     -14.3814461
7.252                0.992163999     -14.4006263
7.254                0.992163428     -14.4198071
7.256                0.992162872     -14.4389886
7.258                0.992173862     -14.4586821
7.26                 0.992184858     -14.4783762
7.262                0.992195861     -14.4980711
7.264                 0.99220687     -14.5177666
7.266                0.992224809     -14.5381769
7.268                0.992242794     -14.5585859
7.27                 0.992260824     -14.5789937
7.272                  0.9922789     -14.5994003
7.274                0.992298957     -14.6205898
7.276                0.992319104     -14.6417779
7.278                0.992339341     -14.6629648
7.28                 0.992359667     -14.6841503
7.282                0.992377705     -14.7060954
7.284                0.992395799     -14.7280409
7.286                0.992413948     -14.7499869
7.288                0.992432152     -14.7719333
7.29                 0.992444427     -14.7945518
7.292                 0.99245672     -14.8171704
7.294                0.992469033      -14.839789
7.296                0.992481366     -14.8624076
7.298                0.992484415     -14.8855622
7.3                  0.992487502      -14.908716
7.302                0.992490628      -14.931869
7.304                0.992493793     -14.9550211
7.306                0.992484922     -14.9784849
7.308                0.992476073     -15.0019492
7.31                 0.992467246     -15.0254142
7.312                0.992458438     -15.0488797
7.314                0.992436568     -15.0723442
7.316                0.992414643     -15.0958102
7.318                0.992392663     -15.1192776
7.32                  0.99237063     -15.1427465
7.322                0.992337257     -15.1658742
7.324                  0.9923038     -15.1890016
7.326                0.992270261     -15.2121288
7.328                0.992236639     -15.2352558
7.33                 0.992196343      -15.257762
7.332                0.992155991     -15.2802671
7.334                0.992115583     -15.3027712
7.336                 0.99207512     -15.3252743
7.338                0.992034945     -15.3470363
7.34                 0.991994697     -15.3687991
7.342                0.991954376     -15.3905627
7.344                0.991913982      -15.412327
7.346                0.991881164     -15.4334534
7.348                0.991848242      -15.454581
7.35                 0.991815216     -15.4757099
7.352                0.991782086       -15.49684
7.354                 0.99176168     -15.5176451
7.356                0.991741219       -15.53845
7.358                0.991720702     -15.5592547
7.36                 0.991700128     -15.5800593
7.362                0.991693785     -15.6009462
7.364                0.991687453     -15.6218332
7.366                 0.99168113     -15.6427202
7.368                0.991674818     -15.6636072
7.37                 0.991680696       -15.68494
7.372                0.991686597     -15.7062737
7.374                0.991692521     -15.7276082
7.376                0.991698467     -15.7489435
7.378                0.991712295      -15.770973
7.38                  0.99172616     -15.7930021
7.382                0.991740062     -15.8150309
7.384                0.991754001     -15.8370594
7.386                0.991770761     -15.8598769
7.388                0.991787605     -15.8826929
7.39                 0.991804531     -15.9055074
7.392                 0.99182154     -15.9283204
7.394                0.991836837     -15.9519066
7.396                0.991852213     -15.9754926
7.398                0.991867668     -15.9990785
7.4                  0.991883203     -16.0226643
7.402                0.991893456     -16.0469306
7.404                0.991903733     -16.0711979
7.406                0.991914033     -16.0954661
7.408                0.991924358     -16.1197351
7.41                 0.991926411     -16.1445555
7.412                0.991928472     -16.1693759
7.414                0.991930543     -16.1941963
7.416                0.991932622     -16.2190168
7.418                0.991923968     -16.2441996
7.42                 0.991915329     -16.2693826
7.422                0.991906705     -16.2945658
7.424                0.991898094     -16.3197492
7.426                0.991877473     -16.3450289
7.428                0.991856822     -16.3703099
7.43                 0.991836141     -16.3955923
7.432                 0.99181543     -16.4208761
7.434                0.991783547     -16.4459534
7.436                0.991751584     -16.4710312
7.438                0.991719544     -16.4961096
7.44                 0.991687425     -16.5211886
7.442                0.991647701     -16.5457775
7.444                0.991607912     -16.5703652
7.446                0.991568059     -16.5949518
7.448                0.991528143     -16.6195371
7.45                 0.991486521     -16.6434704
7.452                0.991444847     -16.6674032
7.454                0.991403122     -16.6913356
7.456                0.991361344     -16.7152675
7.458                0.991324868     -16.7385762
7.46                 0.991288303     -16.7618861
7.462                0.991251651     -16.7851972
7.464                0.991214909     -16.8085096
7.466                0.991189262     -16.8314465
7.468                0.991163532      -16.854384
7.47                 0.991137716     -16.8773222
7.472                0.991111815     -16.9002611
7.474                0.991099667     -16.9231948
7.476                0.991087502     -16.9461283
7.478                0.991075321     -16.9690617
7.48                 0.991063122      -16.991995
7.482                0.991063611     -17.0153126
7.484                0.991064128     -17.0386306
7.486                0.991064675     -17.0619491
7.488                 0.99106525     -17.0852682
7.49                 0.991074704     -17.1092537
7.492                0.991084198     -17.1332394
7.494                0.991093733     -17.1572254
7.496                0.991103309     -17.1812117
7.498                 0.99111667     -17.2060036
7.5                  0.991130104     -17.2307942
7.502                0.991143611     -17.2555836
7.504                0.991157192     -17.2803717
7.506                0.991169691     -17.3059644
7.508                0.991182284     -17.3315562
7.51                 0.991194972      -17.357147
7.512                0.991207753     -17.3827367
7.514                0.991215629     -17.4090447
7.516                 0.99122355     -17.4353535
7.518                0.991231516     -17.4616631
7.52                 0.991239529     -17.4879734
7.522                0.991239846     -17.5148593
7.524                0.991240157      -17.541746
7.526                0.991240461     -17.5686337
7.528                0.991240757     -17.5955224
7.53                 0.991231222      -17.622814
7.532                0.991221678     -17.6501059
7.534                0.991212124     -17.6773982
7.536                 0.99120256     -17.7046909
7.538                0.991181817     -17.7321617
7.54                 0.991161051     -17.7596335
7.542                0.991140262     -17.7871062
7.544                 0.99111945       -17.81458
7.546                0.991087765     -17.8419596
7.548                0.991056011     -17.8693401
7.55                 0.991024191     -17.8967216
7.552                0.990992303     -17.9241041
7.554                0.990952139     -17.9511213
7.556                0.990911902     -17.9781376
7.558                0.990871592      -18.005153
7.56                 0.990831208     -18.0321675
7.562                0.990787519     -18.0586236
7.564                0.990743785     -18.0850781
7.566                0.990700006      -18.111531
7.568                0.990656181     -18.1379822
7.57                 0.990615494     -18.1638473
7.572                0.990574744     -18.1897126
7.574                0.990533929     -18.2155781
7.576                0.990493051     -18.2414439
7.578                0.990461505     -18.2668943
7.58                 0.990429866     -18.2923458
7.582                0.990398131     -18.3177985
7.584                  0.9903663     -18.3432522
7.586                0.990347541     -18.3686235
7.588                0.990328727     -18.3939949
7.59                 0.990309858     -18.4193664
7.592                0.990290932     -18.4447381
7.594                0.990285164     -18.4704213
7.596                0.990279409     -18.4961045
7.598                0.990273668     -18.5217876
7.6                  0.990267942     -18.5474708
7.602                0.990272256     -18.5737872
7.604                0.990276615     -18.6001038
7.606                0.990281021     -18.6264207
7.608                0.990285474     -18.6527379
7.61                  0.99029499     -18.6798786
7.612                0.990304575     -18.7070183
7.614                0.990314229     -18.7341572
7.616                0.990323953     -18.7612952
7.618                0.990333556     -18.7892895
7.62                 0.990343259     -18.8172821
7.622                0.990353063     -18.8452729
7.624                0.990362967     -18.8732619
7.626                0.990368505     -18.9020277
7.628                0.990374118     -18.9307933
7.63                 0.990379806     -18.9595585
7.632                0.990385569     -18.9883235
7.634                0.990383991     -19.0177198
7.636                0.990382412     -19.0471173
7.638                0.990380832     -19.0765161
7.64                 0.990379252      -19.105916
7.642                0.990368422     -19.1357746
7.644                0.990357555     -19.1656341
7.646                0.990346651     -19.1954944
7.648                 0.99033571     -19.2253555
7.65                 0.990314278     -19.2554718
7.652                0.990292809     -19.2855888
7.654                0.990271303     -19.3157064
7.656                0.990249761     -19.3458247
7.658                0.990217671     -19.3759589
7.66                 0.990185521     -19.4060939
7.662                0.990153313     -19.4362298
7.664                0.990121046     -19.4663665
7.666                0.990080077      -19.496262
7.668                0.990039034     -19.5261568
7.67                 0.989997915      -19.556051
7.672                0.989956721     -19.5859445
7.674                0.989910856     -19.6153959
7.676                0.989864945     -19.6448449
7.678                0.989818987     -19.6742913
7.68                 0.989772982     -19.7037351
7.682                0.989728107     -19.7326531
7.684                0.989683193     -19.7615694
7.686                0.989638242     -19.7904842
7.688                0.989593252     -19.8193975
7.69                   0.9895556     -19.8478927
7.692                0.989517865     -19.8763884
7.694                0.989480047     -19.9048848
7.696                0.989442145     -19.9333817
7.698                0.989416186     -19.9617383
7.7                  0.989390137     -19.9900954
7.702                0.989363997     -20.0184531
7.704                0.989337767     -20.0468113
7.706                0.989324828     -20.0754102
7.708                0.989311864     -20.1040088
7.71                 0.989298876     -20.1326072
7.712                0.989285865     -20.1612054
7.714                 0.98928389     -20.1904041
7.716                0.989281953     -20.2196026
7.718                0.989280056     -20.2488009
7.72                 0.989278197     -20.2779991
7.722                0.989282701     -20.3080298
7.724                0.989287276     -20.3380596
7.726                0.989291921     -20.3680886
7.728                0.989296637     -20.3981168
7.73                 0.989302278     -20.4290634
7.732                0.989308022     -20.4600078
7.734                0.989313869     -20.4909498
7.736                0.989319819     -20.5218894
7.738                0.989321909     -20.5536815
7.74                 0.989324103     -20.5854718
7.742                  0.9893264     -20.6172601
7.744                0.989328799     -20.6490464
7.746                0.989324016      -20.681539
7.748                0.989319258     -20.7140319
7.75                 0.989314526     -20.7465252
7.752                0.989309818     -20.7790189
7.754                0.989296034     -20.8120361
7.756                0.989282193     -20.8450545
7.758                0.989268296     -20.8780741
7.76                 0.989254343     -20.9110949
7.762                 0.98923027     -20.9444449
7.764                0.989206122     -20.9777957
7.766                  0.9891819     -21.0111471
7.768                0.989157604     -21.0444993
7.77                 0.989123048     -21.0779596
7.772                 0.98908842     -21.1114203
7.774                0.989053719     -21.1448815
7.776                0.989018946     -21.1783431
7.778                0.988975231      -21.211677
7.78                 0.988931439     -21.2450101
7.782                0.988887569     -21.2783424
7.784                0.988843621     -21.3116741
7.786                0.988794012     -21.3446713
7.788                0.988744352     -21.3776652
7.79                 0.988694642     -21.4106558
7.792                 0.98864488      -21.443643
7.794                0.988594532     -21.4761843
7.796                0.988544166     -21.5087216
7.798                0.988493783      -21.541255
7.8                  0.988443384     -21.5737844
7.802                0.988398435     -21.6059127
7.804                0.988353434     -21.6380397
7.806                0.988308379     -21.6701653
7.808                0.988263271     -21.7022896
7.81                 0.988228918     -21.7342359
7.812                0.988194456     -21.7661826
7.814                0.988159886     -21.7981299
7.816                0.988125206     -21.8300777
7.818                0.988103808     -21.8622053
7.82                  0.98808233     -21.8943329
7.822                0.988060772     -21.9264605
7.824                0.988039133      -21.958588
7.826                0.988029642     -21.9912753
7.828                0.988020156     -22.0239618
7.83                 0.988010672     -22.0566477
7.832                0.988001193      -22.089333
7.834                0.987999693     -22.1228697
7.836                0.987998262      -22.156405
7.838                0.987996899     -22.1899391
7.84                 0.987995604     -22.2234718
7.842                0.987996675     -22.2579933
7.844                0.987997859     -22.2925118
7.846                0.987999158     -22.3270271
7.848                 0.98800057     -22.3615394
7.85                 0.987998962     -22.3970169
7.852                0.987997489     -22.4324904
7.854                0.987996153     -22.4679598
7.856                0.987994953      -22.503425
7.858                0.987986796     -22.5397141
7.86                 0.987978713     -22.5760011
7.862                0.987970703     -22.6122862
7.864                0.987962766     -22.6485693
7.866                0.987945654     -22.6854828
7.868                0.987928491     -22.7223969
7.87                 0.987911277     -22.7593118
7.872                0.987894013     -22.7962273
7.874                 0.98786668     -22.8335693
7.876                0.987839225     -22.8709124
7.878                0.987811649     -22.9082566
7.88                  0.98778395     -22.9456019
7.882                0.987746052     -22.9831594
7.884                0.987708034     -23.0207172
7.886                0.987669897     -23.0582755
7.888                 0.98763164     -23.0958341
7.89                 0.987584185     -23.1333875
7.892                0.987536635     -23.1709398
7.894                 0.98748899     -23.2084908
7.896                 0.98744125     -23.2460408
7.898                0.987386867     -23.2833831
7.9                  0.987332435     -23.3207209
7.902                0.987277954     -23.3580545
7.904                0.987223423     -23.3953836
7.906                0.987166623     -23.4323693
7.908                0.987109834     -23.4693482
7.91                 0.987053056     -23.5063202
7.912                0.986996289     -23.5432853
7.914                0.986942903     -23.5799038
7.916                0.986889516     -23.6165171
7.918                0.986836129     -23.6531254
7.92                 0.986782741     -23.6897285
7.922                0.986738432      -23.726148
7.924                0.986694026     -23.7625663
7.926                0.986649521     -23.7989836
7.928                0.986604917     -23.8353998
7.93                 0.986573077      -23.871946
7.932                0.986541091     -23.9084926
7.934                0.986508957     -23.9450397
7.936                0.986476676     -23.9815871
7.938                0.986457374     -24.0186563
7.94                  0.98643799     -24.0557251
7.942                0.986418524     -24.0927935
7.944                0.986398976     -24.1298616
7.946                0.986389012     -24.1677877
7.948                0.986379078     -24.2057118
7.95                 0.986369175      -24.243634
7.952                0.986359302     -24.2815542
7.954                0.986353366     -24.3205385
7.956                0.986347561     -24.3595183
7.958                0.986341887     -24.3984936
7.96                 0.986336344     -24.4374642
7.962                0.986328764     -24.4775189
7.964                0.986321377     -24.5175665
7.966                0.986314182     -24.5576069
7.968                0.986307179     -24.5976402
7.97                  0.98629347     -24.6386454
7.972                0.986279914     -24.6796443
7.974                0.986266511     -24.7206368
7.976                0.986253258     -24.7616232
7.978                0.986230561     -24.8033755
7.98                 0.986207856     -24.8451257
7.982                0.986185141      -24.886874
7.984                0.986162418     -24.9286201
7.986                0.986129426     -24.9709114
7.988                0.986096261     -25.0132041
7.99                 0.986062925     -25.0554982
7.992                0.986029417     -25.0977938
7.994                0.985985691     -25.1404128
7.996                0.985941735     -25.1830339
7.998                 0.98589755      -25.225657
8                    0.985853133     -25.2682821
8.002                0.985799499     -25.3110183
8.004                0.985745682     -25.3537539
8.006                0.985691683      -25.396489
8.008                0.985637501     -25.4392236
8.01                 0.985576066      -25.481888
8.012                0.985514573     -25.5245464
8.014                0.985453025     -25.5671986
8.016                 0.98539142     -25.6098448
8.018                0.985326073     -25.6522678
8.02                 0.985260819     -25.6946795
8.022                0.985195656     -25.7370796
8.024                0.985130585     -25.7794682
8.026                0.985066898     -25.8216065
8.028                0.985003333     -25.8637334
8.03                 0.984939889     -25.9058485
8.032                0.984876569      -25.947952
8.034                0.984820491     -25.9899091
8.036                0.984764386     -26.0318603
8.038                0.984708256     -26.0738055
8.04                 0.984652099     -26.1157447
8.042                0.984607984     -26.1578071
8.044                0.984563666     -26.1998699
8.046                0.984519143      -26.241933
8.048                0.984474416     -26.2839965
8.05                 0.984443407     -26.3265634
8.052                0.984412144     -26.3691338
8.054                 0.98438062     -26.4117077
8.056                0.984348837     -26.4542849
8.058                0.984328513     -26.4977318
8.06                 0.984308042     -26.5411796
8.062                0.984287422     -26.5846283
8.064                0.984266653     -26.6280779
8.066                0.984251839     -26.6726819
8.068                0.984237141     -26.7172793
8.07                  0.98422256     -26.7618702
8.072                0.984208095     -26.8064547
8.074                0.984192656     -26.8522851
8.076                0.984177615      -26.898102
8.078                 0.98416297     -26.9439054
8.08                 0.984148721     -26.9896948
8.082                0.984127581     -27.0366581
8.084                0.984106859     -27.0836078
8.086                0.984086553     -27.1305435
8.088                0.984066662     -27.1774649
8.09                 0.984036493     -27.2253655
8.092                0.984006463     -27.2732572
8.094                0.983976571       -27.32114
8.096                0.983946817     -27.3690138
8.098                 0.98390587     -27.4175973
8.1                   0.98386474     -27.4661808
8.102                0.983823427     -27.5147643
8.104                0.983781929     -27.5633479
8.106                0.983729866     -27.6123877
8.108                 0.98367733     -27.6614409
8.11                 0.983624316     -27.7105073
8.112                0.983570818     -27.7595864
8.114                0.983508313     -27.8088853
8.116                0.983445175     -27.8582004
8.118                0.983381399     -27.9075312
8.12                 0.983316977     -27.9568774
8.122                 0.98324537     -28.0062527
8.124                0.983173448     -28.0556262
8.126                 0.98310121     -28.1049981
8.128                0.983028656     -28.1543681
8.13                 0.982950591     -28.2036746
8.132                0.982873137     -28.2529554
8.134                0.982796292     -28.3022097
8.136                0.982720051     -28.3514367
8.138                0.982641063     -28.4005593
8.14                 0.982563255     -28.4496564
8.142                0.982486619     -28.4987253
8.144                 0.98241115     -28.5477635
8.146                0.982338866     -28.5967474
8.148                0.982267065     -28.6457207
8.15                 0.982195749      -28.694683
8.152                0.982124925     -28.7436337
8.154                0.982064259     -28.7927416
8.156                0.982003442      -28.841844
8.158                 0.98194247      -28.890941
8.16                 0.981881345     -28.9400326
8.162                0.981834726     -28.9895624
8.164                0.981787363     -29.0391402
8.166                0.981739224     -29.0887647
8.168                0.981690272      -29.138435
8.17                  0.98165794     -29.1887863
8.172                0.981623466     -29.2392577
8.174                0.981586732     -29.2898422
8.176                0.981547634     -29.3405332
8.178                 0.98152514     -29.3921228
8.18                 0.981499068     -29.4438328
8.182                0.981469328     -29.4956547
8.184                0.981435832     -29.5475804
8.186                0.981403773     -29.6008569
8.188                0.981375438     -29.6540597
8.19                 0.981350787       -29.70718
8.192                0.981329775     -29.7602094
8.194                0.981124543     -29.8163028
8.196                0.981052874     -29.8737008
8.198                0.981094232      -29.928592
8.2                  0.981204554     -29.9783108