! TOUCHSTONE file generated by CST DESIGN STUDIO
! Date and time: Mon Feb 10 16:55:58 2025
! Project name: C:\Work\MatlabApps\UnitCellType2OptimizationMatlab\CST\unitcell.cst
! Tree item: Tasks\Sweep1\SPara1\S-Parameters
! Header version: 2024
! Port assignment regex: !\s*Touchstone port\s*([0-9]+)\s*=\s*(CST MWS port|CST DES external port|CST DES block port)\s*(.+)\s* \(\"(.*)\"\)(\s*mode\s*([0-9]+))?.*
! Touchstone port assignment:
! Touchstone port 1 = CST DES external port 1 ("")
# GHz S MA R 50
7                    0.991132447     -8.46171218
7.002                0.991212374     -8.47959049
7.004                0.991292357     -8.49745821
7.006                0.991372398     -8.51531541
7.008                0.991452497     -8.53316231
7.01                 0.991536764     -8.55306135
7.012                0.991621128      -8.5729461
7.014                0.991705588     -8.59281665
7.016                0.991790144     -8.61267332
7.018                0.991863028     -8.63443541
7.02                 0.991936052     -8.65618026
7.022                0.992009215       -8.677908
7.024                0.992082517     -8.69961872
7.026                0.992132025      -8.7227157
7.028                0.992181732     -8.74579508
7.03                 0.992231638     -8.76885684
7.032                0.992281744     -8.79190108
7.034                0.992301765     -8.81559389
7.036                0.992322015     -8.83927243
7.038                0.992342494     -8.86293674
7.04                 0.992363203      -8.8865869
7.042                0.992353914     -8.91012271
7.044                0.992344789     -8.93365016
7.046                0.992335826     -8.95716928
7.048                0.992327023     -8.98068007
7.05                 0.992293516       -9.003437
7.052                0.992260015     -9.02619044
7.054                0.992226521     -9.04894043
7.056                0.992193034     -9.07168701
7.058                0.992143386     -9.09324898
7.06                 0.992093582     -9.11480917
7.062                0.992043623     -9.13636776
7.064                0.991993511     -9.15792476
7.066                0.991937076     -9.17808672
7.068                0.991880388     -9.19824704
7.07                 0.991823447     -9.21840584
7.072                0.991766254     -9.23856314
7.074                0.991712469     -9.25732141
7.076                0.991658394     -9.27607854
7.078                0.991604029     -9.29483454
7.08                 0.991549376      -9.3135894
7.082                0.991506981     -9.33111797
7.084                0.991464294     -9.34864609
7.086                0.991421317     -9.36617378
7.088                0.991378053     -9.38370097
7.09                 0.991354293     -9.40033282
7.092                0.991330285     -9.41696393
7.094                0.991306029     -9.43359429
7.096                0.991281525     -9.45022391
7.098                0.991281424     -9.46643762
7.1                  0.991281174     -9.48264923
7.102                0.991280774     -9.49885876
7.104                0.991280225     -9.51506624
7.106                0.991305721     -9.53144504
7.108                0.991331195     -9.54782045
7.11                 0.991356646     -9.56419248
7.112                0.991382073     -9.58056116
7.114                0.991430827     -9.59773599
7.116                0.991479665     -9.61490618
7.118                0.991528587     -9.63207177
7.12                 0.991577595     -9.64923291
7.122                 0.99164251     -9.66775342
7.124                 0.99170758     -9.68626736
7.126                0.991772803     -9.70477481
7.128                0.991838181       -9.723276
7.13                 0.991908021     -9.74347498
7.132                 0.99197806     -9.76366502
7.134                0.992048296     -9.78384619
7.136                0.992118729     -9.80401854
7.138                 0.99218036      -9.8258985
7.14                 0.992242207     -9.84776845
7.142                0.992304272     -9.86962831
7.144                0.992366553      -9.8914781
7.146                0.992407899       -9.914682
7.148                0.992449437     -9.93787674
7.15                 0.992491169     -9.96106231
7.152                0.992533093     -9.98423879
7.154                0.992546203     -10.0081143
7.156                0.992559433      -10.031983
7.158                0.992572784     -10.0558449
7.16                 0.992586254     -10.0797002
7.162                0.992569211      -10.103451
7.164                0.992552185      -10.127198
7.166                0.992535177      -10.150941
7.168                0.992518186     -10.1746802
7.17                 0.992475721     -10.1975586
7.172                0.992433157     -10.2204357
7.174                0.992390499     -10.2433118
7.176                0.992347746     -10.2661868
7.178                0.992289868     -10.2876655
7.18                 0.992231791     -10.3091451
7.182                0.992173516     -10.3306258
7.184                0.992115044     -10.3521076
7.186                0.992054404     -10.3719967
7.188                0.991993503     -10.3918874
7.19                 0.991932339     -10.4117799
7.192                0.991870915      -10.431674
7.194                0.991819532     -10.4501323
7.196                0.991767895     -10.4685914
7.198                0.991716003     -10.4870512
7.2                  0.991663858     -10.5055118
7.202                0.991630798     -10.5229629
7.204                0.991597557     -10.5404137
7.206                0.991564136     -10.5578641
7.208                0.991530534     -10.5753142
7.21                 0.991520438     -10.5923315
7.212                0.991510251     -10.6093484
7.214                0.991499972     -10.6263648
7.216                0.991489601     -10.6433809
7.218                0.991502721      -10.660544
7.22                 0.991515808     -10.6777067
7.222                 0.99152886     -10.6948692
7.224                0.991541878     -10.7120314
7.226                0.991574685     -10.7298408
7.228                0.991607498     -10.7476484
7.23                 0.991640315     -10.7654544
7.232                0.991673138     -10.7832589
7.234                0.991719684     -10.8020727
7.236                0.991766294     -10.8208824
7.238                0.991812971     -10.8396878
7.24                 0.991859713     -10.8584892
7.242                0.991912768     -10.8785146
7.244                0.991965971      -10.898534
7.246                0.992019321     -10.9185474
7.248                0.992072818      -10.938555
7.25                 0.992124527     -10.9598587
7.252                0.992176445     -10.9811565
7.254                0.992228574     -11.0024484
7.256                0.992280911     -11.0237343
7.258                0.992323295     -11.0462214
7.26                 0.992365901     -11.0687032
7.262                0.992408728       -11.09118
7.264                0.992451775     -11.1136516
7.266                0.992477477     -11.1370587
7.268                0.992503367     -11.1604613
7.27                 0.992529444     -11.1838596
7.272                0.992555705     -11.2072534
7.274                0.992559405     -11.2311371
7.276                0.992563221     -11.2550177
7.278                0.992567153     -11.2788953
7.28                   0.9925712     -11.3027697
7.282                0.992551045     -11.3265685
7.284                0.992530886     -11.3503666
7.286                0.992510726     -11.3741641
7.288                0.992490566     -11.3979609
7.29                 0.992449105     -11.4210816
7.292                0.992407495     -11.4442037
7.294                0.992365735     -11.4673274
7.296                0.992323827     -11.4904526
7.298                 0.99226821     -11.5123998
7.3                  0.992212323     -11.5343491
7.302                0.992156165     -11.5563006
7.304                0.992099737      -11.578254
7.306                0.992040642     -11.5987596
7.308                0.991981238      -11.619267
7.31                 0.991921528     -11.6397761
7.312                0.991861513     -11.6602868
7.314                0.991810973     -11.6794048
7.316                0.991760177     -11.6985248
7.318                0.991709126     -11.7176467
7.32                 0.991657822     -11.7367705
7.322                 0.99162615     -11.7548856
7.324                0.991594326     -11.7730029
7.326                0.991562347     -11.7911225
7.328                0.991530213     -11.8092446
7.33                  0.99152335     -11.8269825
7.332                0.991516452     -11.8447217
7.334                0.991509516     -11.8624623
7.336                0.991502541     -11.8802042
7.338                0.991520772     -11.8982546
7.34                 0.991539091     -11.9163045
7.342                  0.9915575     -11.9343538
7.344                   0.991576     -11.9524024
7.346                0.991614339     -11.9713695
7.348                0.991652855     -11.9903355
7.35                  0.99169155     -12.0093006
7.352                0.991730425     -12.0282647
7.354                0.991780087     -12.0485401
7.356                0.991829934     -12.0688145
7.358                0.991879961     -12.0890879
7.36                 0.991930165     -12.1093603
7.362                0.991980753     -12.1310519
7.364                0.992031492     -12.1527403
7.366                0.992082382     -12.1744253
7.368                0.992133422     -12.1961068
7.37                 0.992175494     -12.2190521
7.372                0.992217725     -12.2419923
7.374                0.992260117     -12.2649276
7.376                0.992302671     -12.2878579
7.378                0.992329523     -12.3117206
7.38                 0.992356534     -12.3355806
7.382                0.992383705     -12.3594379
7.384                0.992411032     -12.3832928
7.386                0.992418994     -12.4076495
7.388                0.992427046      -12.432006
7.39                 0.992435186     -12.4563622
7.392                0.992443412      -12.480718
7.394                0.992431606     -12.5051277
7.396                0.992419811      -12.529537
7.398                 0.99240803     -12.5539459
7.4                  0.992396267     -12.5783544
7.402                0.992366724     -12.6023913
7.404                0.992337135     -12.6264285
7.406                0.992307503     -12.6504661
7.408                0.992277829     -12.6745042
7.41                 0.992234869     -12.6978275
7.412                0.992191787     -12.7211526
7.414                0.992148581     -12.7444794
7.416                 0.99210525      -12.767808
7.418                0.992054908      -12.790177
7.42                 0.992004362      -12.812548
7.422                 0.99195361      -12.834921
7.424                0.991902654     -12.8572958
7.426                0.991852343      -12.878597
7.428                0.991801786     -12.8998998
7.43                 0.991750985     -12.9212042
7.432                0.991699939       -12.94251
7.434                 0.99165779     -12.9628098
7.436                0.991615415     -12.9831112
7.438                0.991572813     -13.0034143
7.44                 0.991529985     -13.0237191
7.442                 0.99150353     -13.0432823
7.444                0.991476917     -13.0628477
7.446                0.991450145     -13.0824154
7.448                0.991423216     -13.1019853
7.45                  0.99141752     -13.1212714
7.452                0.991411774     -13.1405596
7.454                0.991405977     -13.1598498
7.456                0.991400131     -13.1791422
7.458                0.991416451     -13.1987176
7.46                 0.991432857      -13.218294
7.462                0.991449349     -13.2378714
7.464                0.991465928     -13.2574498
7.466                0.991500924     -13.2778803
7.468                0.991536139     -13.2983108
7.47                 0.991571571     -13.3187411
7.472                 0.99160722     -13.3391714
7.474                0.991653354     -13.3608832
7.476                0.991699784     -13.3825942
7.478                0.991746508     -13.4043044
7.48                 0.991793526     -13.4260138
7.482                0.991840566     -13.4491855
7.484                0.991887905     -13.4723558
7.486                0.991935542     -13.4955247
7.488                0.991983476     -13.5186922
7.49                 0.992020855     -13.5432019
7.492                0.992058472     -13.5677099
7.494                0.992096329     -13.5922162
7.496                0.992134422     -13.6167208
7.498                0.992153899     -13.6421821
7.5                  0.992173515     -13.6676423
7.502                 0.99219327     -13.6931013
7.504                0.992213164     -13.7185592
7.506                0.992210579     -13.7444217
7.508                0.992208009     -13.7702848
7.51                 0.992205455     -13.7961483
7.512                0.992202917     -13.8220124
7.514                0.992178802     -13.8476997
7.516                0.992154576     -13.8733893
7.518                0.992130241      -13.899081
7.52                 0.992105796     -13.9247749
7.522                0.992064803     -13.9498075
7.524                0.992023605     -13.9748429
7.526                0.991982203     -13.9998811
7.528                0.991940596     -14.0249221
7.53                 0.991890155     -14.0490037
7.532                0.991839478     -14.0730876
7.534                0.991788565     -14.0971737
7.536                0.991737415      -14.121262
7.538                0.991685858     -14.1443135
7.54                 0.991634098     -14.1673663
7.542                0.991582134     -14.1904205
7.544                0.991529968      -14.213476
7.546                0.991484975     -14.2356169
7.548                0.991439851     -14.2577586
7.55                 0.991394594     -14.2799011
7.552                0.991349206     -14.3020444
7.554                0.991316697     -14.3235392
7.556                0.991284131     -14.3450348
7.558                0.991251506     -14.3665313
7.56                 0.991218823     -14.3880286
7.562                 0.99120247     -14.4092281
7.564                0.991186117     -14.4304287
7.566                0.991169764     -14.4516305
7.568                0.991153411     -14.4728335
7.57                 0.991154452     -14.4941305
7.572                0.991155538     -14.5154288
7.574                0.991156669     -14.5367285
7.576                0.991157846     -14.5580297
7.578                0.991175163     -14.5798153
7.58                 0.991192577     -14.6016021
7.582                0.991210087     -14.6233902
7.584                0.991227694     -14.6451795
7.586                 0.99125771     -14.6678092
7.588                0.991287891     -14.6904395
7.59                 0.991318235     -14.7130703
7.592                0.991348742     -14.7357016
7.594                0.991385672     -14.7594381
7.596                0.991422843     -14.7831743
7.598                0.991460255     -14.8069102
7.6                  0.991497909     -14.8306458
7.602                 0.99153427     -14.8556106
7.604                0.991570934     -14.8805746
7.606                  0.9916079     -14.9055377
7.608                0.991645166     -14.9305001
7.61                 0.991672856     -14.9566214
7.612                0.991700854     -14.9827419
7.614                0.991729159     -15.0088616
7.616                0.991757773     -15.0349805
7.618                 0.99176962     -15.0619808
7.62                 0.991781703     -15.0889808
7.622                0.991794021     -15.1159807
7.624                0.991806576     -15.1429803
7.626                0.991798058     -15.1703983
7.628                 0.99178963     -15.1978169
7.63                 0.991781294      -15.225236
7.632                 0.99177305     -15.2526558
7.634                0.991743637     -15.2799417
7.636                0.991714132     -15.3072291
7.638                0.991684535     -15.3345182
7.64                 0.991654844     -15.3618087
7.642                 0.99160853     -15.3884455
7.644                0.991561951     -15.4150848
7.646                0.991515109     -15.4417266
7.648                0.991468002     -15.4683707
7.65                 0.991412411     -15.4939998
7.652                0.991356454     -15.5196318
7.654                0.991300132     -15.5452664
7.656                0.991243445     -15.5709039
7.658                0.991188195      -15.595422
7.66                 0.991132594     -15.6199422
7.662                0.991076642     -15.6444646
7.664                0.991020339     -15.6689891
7.666                0.990974649     -15.6925562
7.668                0.990928746     -15.7161243
7.67                  0.99088263     -15.7396935
7.672                0.990836301     -15.7632637
7.674                0.990806981     -15.7862669
7.676                0.990777664     -15.8092702
7.678                0.990748349     -15.8322737
7.68                 0.990719039     -15.8552775
7.682                0.990709074       -15.87822
7.684                0.990699324     -15.9011625
7.686                 0.99068979     -15.9241049
7.688                0.990680471     -15.9470472
7.69                 0.990688808     -15.9704349
7.692                0.990697503     -15.9938225
7.694                0.990706553     -16.0172101
7.696                0.990715959     -16.0405975
7.698                0.990738265     -16.0648255
7.7                  0.990760969     -16.0890533
7.702                 0.99078407     -16.1132808
7.704                0.990807568      -16.137508
7.706                 0.99083751     -16.1628154
7.708                0.990867814     -16.1881223
7.71                 0.990898481     -16.2134286
7.712                 0.99092951     -16.2387344
7.714                0.990960118     -16.2651902
7.716                0.990991021     -16.2916453
7.718                0.991022219     -16.3180997
7.72                  0.99105371     -16.3445536
7.722                0.991078432     -16.3720733
7.724                0.991103386     -16.3995925
7.726                0.991128571      -16.427111
7.728                0.991153988     -16.4546289
7.73                 0.991167423     -16.4830131
7.732                0.991181049     -16.5113968
7.734                0.991194866     -16.5397801
7.736                0.991208876     -16.5681629
7.738                 0.99120714     -16.5971192
7.74                 0.991205574      -16.626075
7.742                0.991204178     -16.6550304
7.744                0.991202952     -16.6839854
7.746                0.991184244     -16.7131538
7.748                0.991165678     -16.7423216
7.75                 0.991147256     -16.7714886
7.752                0.991128975     -16.8006549
7.754                0.991093851     -16.8296496
7.756                0.991058811     -16.8586432
7.758                0.991023854     -16.8876356
7.76                  0.99098898      -16.916627
7.762                0.990940809     -16.9450805
7.764                 0.99089262     -16.9735325
7.766                0.990844415     -17.0019832
7.768                0.990796194     -17.0304324
7.77                 0.990740938      -17.058066
7.772                0.990685546     -17.0856984
7.774                0.990630021     -17.1133295
7.776                0.990574362     -17.1409594
7.778                 0.99051984     -17.1676568
7.78                 0.990465099     -17.1943537
7.782                0.990410137     -17.2210499
7.784                0.990354955     -17.2477456
7.786                0.990309449     -17.2736122
7.788                0.990263737     -17.2994786
7.79                  0.99021782     -17.3253449
7.792                0.990171699     -17.3512111
7.794                0.990141956     -17.3765692
7.796                0.990112189     -17.4019268
7.798                0.990082396     -17.4272837
7.8                  0.990052578     -17.4526401
7.802                0.990042135     -17.4779823
7.804                0.990032037     -17.5033224
7.806                0.990022283     -17.5286603
7.808                0.990012874      -17.553996
7.81                  0.99002103     -17.5798672
7.812                0.990030038     -17.6057339
7.814                0.990039898     -17.6315963
7.816                0.990050609     -17.6574542
7.818                0.990072633     -17.6843218
7.82                 0.990096031     -17.7111827
7.822                0.990120804     -17.7380368
7.824                0.990146953      -17.764884
7.826                0.990175117     -17.7930393
7.828                0.990205056     -17.8211857
7.83                 0.990236769     -17.8493228
7.832                0.990270256     -17.8774504
7.834                0.990295831     -17.9069376
7.836                0.990323371     -17.9364133
7.838                0.990352878      -17.965877
7.84                 0.990384352     -17.9953283
7.842                0.990399544     -18.0259597
7.844                0.990416709     -18.0565772
7.846                0.990435849     -18.0871801
7.848                0.990456961     -18.1177679
7.85                 0.990456275     -18.1491882
7.852                0.990457529     -18.1805917
7.854                0.990460723     -18.2119777
7.856                0.990465858     -18.2433457
7.858                0.990446719     -18.2751219
7.86                 0.990429751     -18.3068759
7.862                0.990414954     -18.3386069
7.864                0.990402326     -18.3703139
7.866                0.990364526     -18.4020348
7.868                0.990330021     -18.4337189
7.87                  0.99029881      -18.465364
7.872                 0.99027089     -18.4969682
7.874                0.990214223     -18.5283462
7.876                0.990164602     -18.5596438
7.878                0.990122011     -18.5908524
7.88                  0.99008643     -18.6219635
7.882                0.990000209     -18.6530274
7.884                0.989935736     -18.6838429
7.886                0.989892701     -18.7143342
7.888                0.989870731     -18.7444275
7.89                 0.989635797     -18.7781292
7.892                0.989538043      -18.810922
7.894                0.989554321     -18.8401759
7.896                0.989648537     -18.8640142
7.898                0.989413081     -18.8884654
7.9                  0.989278349     -18.9180852
7.902                0.989283306     -18.9501006
7.904                0.989444709     -18.9809235
7.906                0.989362183     -19.0094758
7.908                 0.98930726      -19.038225
7.91                 0.989280292     -19.0670509
7.912                0.989281488     -19.0958334
7.914                0.989240014     -19.1243635
7.916                 0.98920858      -19.152895
7.918                0.989187219     -19.1814133
7.92                 0.989175952      -19.209904
7.922                0.989158066     -19.2386093
7.924                0.989145598     -19.2673023
7.926                0.989138557     -19.2959789
7.928                0.989136953     -19.3246356
7.93                 0.989138134     -19.3539239
7.932                0.989142728     -19.3832004
7.934                0.989150738     -19.4124639
7.936                0.989162171     -19.4417133
7.938                0.989177593     -19.4719754
7.94                 0.989195214     -19.5022287
7.942                0.989215038     -19.5324726
7.944                0.989237068     -19.5627069
7.946                0.989259645     -19.5942165
7.948                0.989283581     -19.6257197
7.95                 0.989308879     -19.6572163
7.952                 0.98933554     -19.6887062
7.954                0.989356508     -19.7215592
7.956                0.989378289     -19.7544071
7.958                0.989400884     -19.7872499
7.96                 0.989424293     -19.8200876
7.962                0.989434924     -19.8541403
7.964                0.989446092     -19.8881883
7.966                0.989457797     -19.9222313
7.968                0.989470041     -19.9562694
7.97                 0.989463512     -19.9911703
7.972                0.989457465     -20.0260655
7.974                0.989451903     -20.0609551
7.976                0.989446823     -20.0958389
7.978                0.989420053     -20.1310944
7.98                  0.98939385     -20.1663423
7.982                0.989368212     -20.2015827
7.984                0.989343143     -20.2368155
7.986                0.989297345     -20.2719199
7.988                0.989252232     -20.3070141
7.99                  0.98920781      -20.342098
7.992                0.989164079     -20.3771715
7.994                0.989104545     -20.4117096
7.996                0.989045775     -20.4462347
7.998                0.988987772     -20.4807468
8                     0.98893054     -20.5152458
8.002                0.988865152     -20.5489837
8.004                0.988800502     -20.5827072
8.006                0.988736592     -20.6164163
8.008                0.988673426     -20.6501107
8.01                 0.988610724      -20.683052
8.012                0.988548619      -20.715979
8.014                0.988487113     -20.7488918
8.016                 0.98842621     -20.7817905
8.018                0.988373551     -20.8141323
8.02                 0.988321279     -20.8464617
8.022                0.988269394     -20.8787788
8.024                0.988217899     -20.9110836
8.026                0.988179959      -20.943177
8.028                0.988142208     -20.9752603
8.03                 0.988104644     -21.0073335
8.032                0.988067271     -21.0393969
8.034                0.988045757     -21.0716428
8.036                0.988024314     -21.1038806
8.038                0.988002944     -21.1361102
8.04                 0.987981646     -21.1683318
8.042                0.987975285     -21.2011202
8.044                0.987968994     -21.2339015
8.046                0.987962774     -21.2666757
8.048                0.987956624     -21.2994429
8.05                 0.987962043     -21.3331028
8.052                0.987967627     -21.3667558
8.054                0.987973373     -21.4004017
8.056                0.987979282     -21.4340408
8.058                0.987991559     -21.4687937
8.06                 0.988004127     -21.5035387
8.062                0.988016987     -21.5382758
8.064                0.988030139     -21.5730052
8.066                0.988043508      -21.608972
8.068                0.988057271     -21.6449296
8.07                 0.988071426      -21.680878
8.072                0.988085974     -21.7168175
8.074                0.988094302     -21.7539773
8.076                0.988103041     -21.7911266
8.078                 0.98811219     -21.8282654
8.08                  0.98812175     -21.8653937
8.082                0.988119193      -21.903601
8.084                0.988116955     -21.9417968
8.086                0.988115037     -21.9799809
8.088                0.988113439     -22.0181536
8.09                 0.988095406     -22.0571276
8.092                0.988077514     -22.0960891
8.094                0.988059765      -22.135038
8.096                0.988042158     -22.1739745
8.098                0.988006216     -22.2133061
8.1                   0.98797022     -22.2526238
8.102                0.987934171     -22.2919276
8.104                0.987898069     -22.3312176
8.106                0.987844865     -22.3704696
8.108                0.987791469     -22.4097059
8.11                 0.987737881     -22.4489264
8.112                  0.9876841     -22.4881313
8.114                0.987617746     -22.5269027
8.116                0.987551169     -22.5656562
8.118                0.987484372     -22.6043919
8.12                 0.987417356     -22.6431099
8.122                0.987344971     -22.6811338
8.124                0.987272456     -22.7191379
8.126                0.987199811     -22.7571226
8.128                0.987127038     -22.7950878
8.13                 0.987057298      -22.832331
8.132                0.986987596     -22.8695534
8.134                0.986917931      -22.906755
8.136                0.986848305      -22.943936
8.138                0.986789579     -22.9805921
8.14                 0.986731062     -23.0172272
8.142                0.986672756     -23.0538413
8.144                0.986614662     -23.0904347
8.146                0.986572871     -23.1269172
8.148                0.986531396     -23.1633795
8.15                 0.986490238     -23.1998216
8.152                0.986449396     -23.2362439
8.154                0.986426663     -23.2730713
8.156                0.986404238     -23.3098801
8.158                0.986382119     -23.3466704
8.16                 0.986360305     -23.3834423
8.162                 0.98635458     -23.4211088
8.164                0.986349034     -23.4587581
8.166                0.986343665     -23.4963903
8.168                0.986338474     -23.5340057
8.17                 0.986344153     -23.5728987
8.172                0.986349821     -23.6117754
8.174                0.986355478     -23.6506359
8.176                 0.98636112     -23.6894804
8.178                 0.98637064     -23.7297751
8.18                 0.986379971      -23.770053
8.182                 0.98638911     -23.8103143
8.184                0.986398056      -23.850559
8.186                0.986403558     -23.8922446
8.188                0.986408762     -23.9339121
8.19                 0.986413663     -23.9755615
8.192                 0.98641826      -24.017193
8.194                0.986413197     -24.0600793
8.196                0.986407798     -24.1029456
8.198                0.986402062     -24.1457917
8.2                  0.986395986      -24.188618