! TOUCHSTONE file generated by CST DESIGN STUDIO
! Date and time: Mon Feb 10 16:55:53 2025
! Project name: C:\Work\MatlabApps\UnitCellType2OptimizationMatlab\CST\unitcell.cst
! Tree item: Tasks\Sweep1\SPara1\S-Parameters
! Header version: 2024
! Port assignment regex: !\s*Touchstone port\s*([0-9]+)\s*=\s*(CST MWS port|CST DES external port|CST DES block port)\s*(.+)\s* \(\"(.*)\"\)(\s*mode\s*([0-9]+))?.*
! Touchstone port assignment:
! Touchstone port 1 = CST DES external port 1 ("")
# GHz S MA R 50
7                    0.991962195     -11.3398963
7.002                0.991998901     -11.3555466
7.004                0.992035692     -11.3711978
7.006                0.992072569     -11.3868499
7.008                0.992109533     -11.4025032
7.01                 0.992160741     -11.4195167
7.012                0.992212052     -11.4365307
7.014                0.992263466     -11.4535453
7.016                0.992314983     -11.4705607
7.018                0.992369507     -11.4891359
7.02                 0.992424144     -11.5077099
7.022                0.992478893     -11.5262826
7.024                0.992533755      -11.544854
7.026                0.992580611     -11.5648917
7.028                0.992627609     -11.5849268
7.03                 0.992674752     -11.6049591
7.032                0.992722039     -11.6249887
7.034                0.992752559     -11.6461457
7.036                0.992783237      -11.667301
7.038                0.992814075     -11.6884549
7.04                 0.992845073     -11.7096072
7.042                0.992854039     -11.7313967
7.044                0.992863112     -11.7531873
7.046                0.992872292     -11.7749788
7.048                0.992881577     -11.7967714
7.05                 0.992867509     -11.8186517
7.052                0.992853451      -11.840534
7.054                0.992839403     -11.8624184
7.056                0.992825365     -11.8843048
7.058                0.992790454     -11.9057584
7.06                 0.992755468     -11.9272139
7.062                 0.99272041     -11.9486714
7.064                 0.99268528     -11.9701309
7.066                0.992634897     -11.9907363
7.068                0.992584381     -12.0113439
7.07                 0.992533734     -12.0319538
7.072                0.992482955     -12.0525661
7.074                 0.99242464     -12.0720585
7.076                0.992366152     -12.0915533
7.078                 0.99230749     -12.1110505
7.08                 0.992248655     -12.1305501
7.082                0.992191158     -12.1488435
7.084                0.992133481     -12.1671388
7.086                0.992075624     -12.1854359
7.088                0.992017589     -12.2037347
7.09                 0.991969735     -12.2209419
7.092                0.991921745     -12.2381503
7.094                0.991873618       -12.25536
7.096                0.991825355     -12.2725709
7.098                0.991794742     -12.2890128
7.1                  0.991764063     -12.3054562
7.102                0.991733319     -12.3219012
7.104                0.991702508     -12.3383478
7.106                0.991694083     -12.3545102
7.108                0.991685656     -12.3706747
7.11                 0.991677226     -12.3868413
7.112                0.991668793     -12.4030101
7.114                0.991683484     -12.4194777
7.116                0.991698223     -12.4359469
7.118                 0.99171301     -12.4524179
7.12                 0.991727847     -12.4688905
7.122                0.991762184     -12.4862247
7.124                 0.99179662     -12.5035596
7.126                0.991831153      -12.520895
7.128                0.991865785     -12.5382312
7.13                 0.991912248     -12.5568635
7.132                 0.99195885     -12.5754956
7.134                 0.99200559     -12.5941277
7.136                0.992052467     -12.6127596
7.138                0.992100866     -12.6328919
7.14                 0.992149419      -12.653024
7.142                0.992198126     -12.6731557
7.144                0.992246987      -12.693287
7.146                0.992286501      -12.714835
7.148                0.992326157     -12.7363827
7.15                 0.992365956       -12.75793
7.152                0.992405897      -12.779477
7.154                0.992427588     -12.8020821
7.156                0.992449387     -12.8246874
7.158                0.992471293     -12.8472929
7.16                 0.992493306     -12.8698985
7.162                0.992491942     -12.8930148
7.164                0.992490628     -12.9161325
7.166                0.992489363     -12.9392515
7.168                0.992488148     -12.9623719
7.17                 0.992463257     -12.9853936
7.172                0.992438331     -13.0084179
7.174                0.992413373     -13.0314448
7.176                0.992388384     -13.0544744
7.178                 0.99234402     -13.0768535
7.18                 0.992299538     -13.0992356
7.182                0.992254941     -13.1216207
7.184                0.992210228     -13.1440089
7.186                0.992153953     -13.1653647
7.188                0.992097511     -13.1867229
7.19                 0.992040902     -13.2080833
7.192                0.991984126      -13.229446
7.194                0.991925199     -13.2496307
7.196                0.991866106     -13.2698168
7.198                0.991806846     -13.2900042
7.2                   0.99174742     -13.3101929
7.202                0.991695043     -13.3292936
7.204                 0.99164254     -13.3483952
7.206                0.991589908     -13.3674979
7.208                0.991537148     -13.3866016
7.21                 0.991498665     -13.4049131
7.212                0.991460107     -13.4232258
7.214                0.991421473     -13.4415396
7.216                0.991382763     -13.4598547
7.218                0.991362791     -13.4777908
7.22                 0.991342794     -13.4957283
7.222                 0.99132277     -13.5136674
7.224                 0.99130272      -13.531608
7.226                0.991302604     -13.5496421
7.228                0.991302507     -13.5676778
7.23                  0.99130243     -13.5857151
7.232                0.991302374      -13.603754
7.234                0.991320343     -13.6223421
7.236                0.991338375     -13.6409314
7.238                0.991356469     -13.6595221
7.24                 0.991374628     -13.6781143
7.242                0.991406139     -13.6976361
7.244                0.991437752     -13.7171588
7.246                0.991469466     -13.7366823
7.248                0.991501281     -13.7562065
7.25                  0.99153958      -13.776921
7.252                0.991578011     -13.7976357
7.254                0.991616574     -13.8183506
7.256                0.991655268     -13.8390657
7.258                0.991692321     -13.8610553
7.26                 0.991729521     -13.8830449
7.262                0.991766869     -13.9050344
7.264                0.991804364     -13.9270237
7.266                0.991831938     -13.9501858
7.268                0.991859649     -13.9733482
7.27                 0.991887498     -13.9965108
7.272                0.991915484     -14.0196738
7.274                0.991926596     -14.0437044
7.276                0.991937801     -14.0677361
7.278                0.991949099     -14.0917689
7.28                 0.991960491     -14.1158028
7.282                0.991950798     -14.1402465
7.284                 0.99194112     -14.1646922
7.286                0.991931458     -14.1891399
7.288                0.991921813     -14.2135896
7.29                 0.991890739     -14.2379049
7.292                0.991859591     -14.2622227
7.294                0.991828371     -14.2865429
7.296                0.991797078     -14.3108657
7.298                0.991748315     -14.3345388
7.3                  0.991699405     -14.3582144
7.302                0.991650349     -14.3818926
7.304                0.991601145     -14.4055732
7.306                0.991542014     -14.4282311
7.308                0.991482699     -14.4508912
7.31                 0.991423199     -14.4735535
7.312                0.991363515     -14.4962178
7.314                0.991303553      -14.517716
7.316                0.991243417     -14.5392157
7.318                0.991183107     -14.5607169
7.32                 0.991122621     -14.5822196
7.322                0.991071488     -14.6026756
7.324                0.991020234     -14.6231323
7.326                 0.99096886       -14.64359
7.328                0.990917365     -14.6640487
7.33                 0.990882741     -14.6838241
7.332                0.990848074     -14.7036001
7.334                0.990813364      -14.723377
7.336                0.990778611     -14.7431546
7.338                 0.99076454     -14.7627554
7.34                 0.990750499     -14.7823571
7.342                0.990736489     -14.8019598
7.344                0.990722511     -14.8215636
7.346                0.990728719      -14.841536
7.348                0.990735008     -14.8615097
7.35                 0.990741377     -14.8814846
7.352                0.990747826     -14.9014606
7.354                0.990770167     -14.9222701
7.356                0.990792617     -14.9430808
7.358                0.990815173     -14.9638924
7.36                 0.990837835     -14.9847052
7.362                0.990869462     -15.0066534
7.364                0.990901209     -15.0286023
7.366                0.990933076     -15.0505518
7.368                0.990965063      -15.072502
7.37                  0.99099798     -15.0956942
7.372                0.991031022     -15.1188868
7.374                0.991064189     -15.1420798
7.376                0.991097482     -15.1652732
7.378                0.991123999     -15.1896292
7.38                 0.991150635     -15.2139858
7.382                0.991177388     -15.2383429
7.384                0.991204257     -15.2627006
7.386                0.991218133     -15.2879752
7.388                0.991232099     -15.3132508
7.39                 0.991246155     -15.3385275
7.392                  0.9912603     -15.3638051
7.394                0.991257393     -15.3896556
7.396                0.991254525     -15.4155077
7.398                0.991251697     -15.4413612
7.4                   0.99124891     -15.4672163
7.402                0.991227697     -15.4932285
7.404                0.991206461     -15.5192426
7.406                0.991185202     -15.5452584
7.408                0.991163921     -15.5712759
7.41                 0.991125618     -15.5970361
7.412                0.991087227     -15.6227979
7.414                0.991048748     -15.6485614
7.416                0.991010181     -15.6743265
7.418                0.990958743     -15.6994687
7.42                 0.990907165     -15.7246121
7.422                0.990855446     -15.7497569
7.424                0.990803586     -15.7749029
7.426                0.990745316       -15.79917
7.428                0.990686879     -15.8234381
7.43                 0.990628277      -15.847707
7.432                0.990569508     -15.8719769
7.434                0.990512242     -15.8952858
7.436                 0.99045482     -15.9185953
7.438                0.990397243     -15.9419055
7.44                 0.990339509     -15.9652165
7.442                0.990291341     -15.9876768
7.444                0.990243062     -16.0101378
7.446                0.990194673     -16.0325995
7.448                0.990146174      -16.055062
7.45                 0.990113761     -16.0769924
7.452                0.990081307     -16.0989237
7.454                0.990048811     -16.1208557
7.456                0.990016275     -16.1427886
7.458                0.990003413     -16.1646528
7.46                 0.989990586     -16.1865179
7.462                0.989977796     -16.2083837
7.464                0.989965041     -16.2302503
7.466                0.989971575     -16.2525795
7.468                0.989978216     -16.2749092
7.47                 0.989984964     -16.2972396
7.472                0.989991817     -16.3195707
7.474                0.990013557     -16.3428356
7.476                0.990035451      -16.366101
7.478                0.990057499     -16.3893668
7.48                   0.9900797     -16.4126329
7.482                0.990109282     -16.4371469
7.484                0.990139035     -16.4616611
7.486                0.990168959     -16.4861755
7.488                0.990199053     -16.5106901
7.49                 0.990227533     -16.5365392
7.492                0.990256168     -16.5623885
7.494                 0.99028496      -16.588238
7.496                0.990313907     -16.6140879
7.498                0.990332819     -16.6411242
7.5                  0.990351844     -16.6681611
7.502                0.990370983     -16.6951987
7.504                0.990390235     -16.7222367
7.506                0.990393273     -16.7501181
7.508                0.990396359     -16.7780007
7.51                 0.990399493     -16.8058846
7.512                0.990402676     -16.8337698
7.514                0.990386791      -16.862046
7.516                0.990370877     -16.8903241
7.518                0.990354935      -16.918604
7.52                 0.990338965     -16.9468856
7.522                0.990304681     -16.9750913
7.524                0.990270297     -17.0032988
7.526                0.990235813     -17.0315081
7.528                0.990201229     -17.0597191
7.53                 0.990152273     -17.0874603
7.532                0.990103171     -17.1152026
7.534                0.990053923     -17.1429459
7.536                0.990004529     -17.1706902
7.538                0.989946797     -17.1977058
7.54                 0.989888911     -17.2247215
7.542                0.989830869     -17.2517371
7.544                0.989772671     -17.2787528
7.546                0.989713157     -17.3049449
7.548                0.989653509     -17.3311361
7.55                 0.989593729     -17.3573265
7.552                0.989533815     -17.3835161
7.554                0.989479449     -17.4089482
7.556                0.989424991     -17.4343793
7.558                0.989370442     -17.4598094
7.56                 0.989315801     -17.4852384
7.562                 0.98927252     -17.5101196
7.564                0.989229195     -17.5350001
7.566                0.989185824     -17.5598799
7.568                0.989142411     -17.5847589
7.57                 0.989114306      -17.609415
7.572                0.989086204      -17.634071
7.574                0.989058104     -17.6587267
7.576                0.989030007     -17.6833822
7.578                0.989018805     -17.7082083
7.58                 0.989007656     -17.7330346
7.582                0.988996556     -17.7578611
7.584                0.988985506     -17.7826877
7.586                0.988990109     -17.8081009
7.588                0.988994811     -17.8335142
7.59                 0.988999611     -17.8589277
7.592                0.989004509     -17.8843414
7.594                0.989020989     -17.9107058
7.596                0.989037611       -17.93707
7.598                0.989054377      -17.963434
7.6                  0.989071286      -17.989798
7.602                 0.98909329     -18.0173644
7.604                0.989115468     -18.0449303
7.606                 0.98913782     -18.0724957
7.608                0.989160345     -18.1000606
7.61                 0.989180076     -18.1289023
7.612                0.989199982     -18.1577433
7.614                0.989220065     -18.1865837
7.616                0.989240323     -18.2154234
7.618                0.989249985     -18.2454129
7.62                 0.989259783     -18.2754021
7.622                0.989269719     -18.3053908
7.624                0.989279792     -18.3353791
7.626                0.989273219     -18.3661908
7.628                0.989266705     -18.3970025
7.63                 0.989260248     -18.4278141
7.632                0.989253851     -18.4586258
7.634                0.989227904      -18.489804
7.636                0.989201913     -18.5209825
7.638                0.989175878     -18.5521614
7.64                 0.989149797     -18.5833407
7.642                0.989105203     -18.6143909
7.644                0.989060464     -18.6454415
7.646                0.989015582     -18.6764926
7.648                0.988970553     -18.7075442
7.65                 0.988911712     -18.7380395
7.652                 0.98885266     -18.7685349
7.654                0.988793398     -18.7990304
7.656                0.988733927      -18.829526
7.658                0.988668021     -18.8592119
7.66                 0.988601897     -18.8888969
7.662                0.988535555     -18.9185811
7.664                0.988468996     -18.9482644
7.666                0.988404312     -18.9770903
7.668                0.988339465     -19.0059141
7.67                 0.988274455     -19.0347359
7.672                0.988209282     -19.0635558
7.674                0.988153465     -19.0916923
7.676                0.988097583      -19.119826
7.678                0.988041638     -19.1479568
7.68                 0.987985629     -19.1760848
7.682                0.987944166     -19.2038658
7.684                0.987902746     -19.2316437
7.686                0.987861369     -19.2594184
7.688                0.987820034     -19.2871901
7.69                 0.987795359     -19.3150428
7.692                0.987770812     -19.3428926
7.694                0.987746389     -19.3707396
7.696                0.987722092     -19.3985837
7.698                0.987713495     -19.4269298
7.7                  0.987705067     -19.4552734
7.702                0.987696809     -19.4836147
7.704                 0.98768872     -19.5119536
7.706                0.987692752     -19.5411517
7.708                0.987696962     -19.5703478
7.71                 0.987701352     -19.5995419
7.712                0.987705921      -19.628734
7.714                0.987717234     -19.6590277
7.716                0.987728716     -19.6893196
7.718                0.987740366     -19.7196097
7.72                 0.987752186     -19.7498982
7.722                0.987764396      -19.781388
7.724                0.987776756     -19.8128762
7.726                0.987789265     -19.8443627
7.728                0.987801925     -19.8758475
7.73                 0.987808576     -19.9084958
7.732                0.987815353     -19.9411423
7.734                0.987822258     -19.9737871
7.736                0.987829289     -20.0064302
7.738                0.987824563     -20.0400565
7.74                 0.987819933     -20.0736808
7.742                  0.9878154      -20.107303
7.744                0.987810964     -20.1409232
7.746                0.987790676     -20.1752252
7.748                0.987770442     -20.2095247
7.75                 0.987750261     -20.2438216
7.752                0.987730133      -20.278116
7.754                0.987692353      -20.312711
7.756                0.987654564     -20.3473029
7.758                0.987616768     -20.3818915
7.76                 0.987578964     -20.4164769
7.762                0.987524731     -20.4509547
7.764                0.987470414     -20.4854285
7.766                0.987416017     -20.5198985
7.768                0.987361538     -20.5543647
7.77                 0.987294856     -20.5883581
7.772                0.987228025     -20.6223471
7.774                0.987161047     -20.6563317
7.776                0.987093921     -20.6903121
7.778                0.987021325      -20.723579
7.78                 0.986948546     -20.7568412
7.782                0.986875585      -20.790099
7.784                 0.98680244     -20.8233521
7.786                0.986731903     -20.8558445
7.788                0.986661204     -20.8883321
7.79                 0.986590343      -20.920815
7.792                0.986519321     -20.9532931
7.794                0.986458505     -20.9851742
7.796                0.986397622       -21.01705
7.798                0.986336671     -21.0489205
7.8                  0.986275653     -21.0807858
7.802                0.986230248     -21.1124171
7.804                0.986184944     -21.1440419
7.806                 0.98613974     -21.1756603
7.808                0.986094636     -21.2072723
7.81                 0.986067027     -21.2391271
7.812                0.986039733     -21.2709737
7.814                0.986012756     -21.3028122
7.816                0.985986095     -21.3346425
7.818                0.985974926     -21.3672032
7.82                 0.985964287     -21.3997538
7.822                 0.98595418     -21.4322943
7.824                0.985944607     -21.4648247
7.826                0.985945067     -21.4984875
7.828                0.985946221     -21.5321385
7.83                 0.985948069     -21.5657775
7.832                0.985950611     -21.5994047
7.834                0.985955682     -21.6343893
7.836                 0.98596152     -21.6693606
7.838                0.985968129     -21.7043185
7.84                 0.985975507     -21.7392626
7.842                0.985977547     -21.7755915
7.844                0.985980351     -21.8119059
7.846                 0.98598392     -21.8482056
7.848                0.985988255     -21.8844903
7.85                 0.985980384     -21.9220002
7.852                0.985973244     -21.9594941
7.854                0.985966836     -21.9969718
7.856                 0.98596116     -22.0344331
7.858                 0.98593839      -22.072823
7.86                 0.985916399     -22.1111935
7.862                0.985895186     -22.1495442
7.864                0.985874752     -22.1878749
7.866                0.985834415     -22.2267744
7.868                0.985795212     -22.2656444
7.87                 0.985757142     -22.3044842
7.872                0.985720204     -22.3432931
7.874                0.985661412     -22.3823556
7.876                0.985605036     -22.4213592
7.878                0.985551066     -22.4603009
7.88                 0.985499492     -22.4991773
7.882                0.985419583     -22.5382142
7.884                0.985347254     -22.5770809
7.886                0.985282332     -22.6157501
7.888                0.985224622     -22.6541955
7.89                 0.985085603     -22.6945005
7.892                 0.98499567     -22.7340087
7.894                0.984943878      -22.771828
7.896                 0.98491516     -22.8073819
7.898                 0.98476311     -22.8439826
7.9                   0.98465294     -22.8821382
7.902                0.984596264     -22.9207007
7.904                  0.9845958     -22.9582873
7.906                0.984504669     -22.9955625
7.908                0.984423785      -23.032808
7.91                 0.984353179      -23.069978
7.912                0.984292831     -23.1070271
7.914                0.984221779     -23.1439298
7.916                0.984154381     -23.1807901
7.918                0.984090639     -23.2176023
7.92                 0.984030557     -23.2543608
7.922                0.983976662      -23.291213
7.924                0.983924749     -23.3280337
7.926                0.983874822     -23.3648217
7.928                0.983826885     -23.4015753
7.93                 0.983790557     -23.4388054
7.932                0.983755512     -23.4760119
7.934                0.983721753     -23.5131943
7.936                0.983689283     -23.5503521
7.938                0.983668841     -23.5884097
7.94                 0.983649268     -23.6264494
7.942                0.983630564     -23.6644711
7.944                0.983612733     -23.7024746
7.946                0.983603422     -23.7417373
7.948                0.983594687      -23.780986
7.95                 0.983586531     -23.8202208
7.952                0.983578955     -23.8594417
7.954                0.983573537     -23.9001559
7.956                0.983568497     -23.9408585
7.958                0.983563838     -23.9815495
7.96                 0.983559558     -24.0222288
7.962                0.983549714     -24.0644229
7.964                0.983540133     -24.1066059
7.966                0.983530815     -24.1487777
7.968                0.983521762     -24.1909386
7.97                 0.983499727     -24.2344302
7.972                0.983477904     -24.2779097
7.974                0.983456295     -24.3213771
7.976                0.983434898     -24.3648325
7.978                0.983395337     -24.4092544
7.98                 0.983355977     -24.4536619
7.982                0.983316816     -24.4980552
7.984                0.983277858     -24.5424341
7.986                0.983218761     -24.5873369
7.988                 0.98315986     -24.6322225
7.99                 0.983101158     -24.6770907
7.992                0.983042656     -24.7219416
7.994                0.982965839      -24.766873
7.996                0.982889206      -24.811784
7.998                0.982812761     -24.8566746
8                    0.982736504     -24.9015449
8.002                0.982646914     -24.9461447
8.004                0.982557477     -24.9907221
8.006                0.982468192      -25.035277
8.008                0.982379062     -25.0798096
8.01                 0.982283609     -25.1238983
8.012                0.982188253      -25.167964
8.014                0.982092997     -25.2120066
8.016                0.981997841     -25.2560263
8.018                 0.98190397     -25.2995968
8.02                 0.981810139     -25.3431451
8.022                0.981716349     -25.3866713
8.024                0.981622601     -25.4301755
8.026                0.981536716      -25.473411
8.028                0.981450832     -25.5166258
8.03                  0.98136495       -25.55982
8.032                0.981279072     -25.6029939
8.034                0.981205824     -25.6461926
8.036                0.981132576     -25.6893724
8.038                0.981059328     -25.7325332
8.04                 0.980986079     -25.7756751
8.042                0.980927515     -25.8192154
8.044                0.980868991     -25.8627377
8.046                0.980810507     -25.9062421
8.048                0.980752064     -25.9497288
8.05                 0.980707816     -25.9940102
8.052                0.980663681      -26.038274
8.054                0.980619656     -26.0825202
8.056                0.980575742     -26.1267489
8.058                0.980543028     -26.1721185
8.06                 0.980510498     -26.2174697
8.062                 0.98047815     -26.2628028
8.064                0.980445986     -26.3081177
8.066                0.980420018     -26.3548574
8.068                0.980394281     -26.4015778
8.07                 0.980368777     -26.4482789
8.072                0.980343505     -26.4949612
8.074                0.980318045     -26.5432091
8.076                0.980292818     -26.5914363
8.078                0.980267823     -26.6396431
8.08                 0.980243062     -26.6878296
8.082                 0.98021117     -26.7375871
8.084                0.980179453     -26.7873228
8.086                0.980147912     -26.8370369
8.088                0.980116546     -26.8867294
8.09                 0.980071785     -26.9378307
8.092                0.980027091     -26.9889091
8.094                0.979982465     -27.0399645
8.096                0.979937906     -27.0909973
8.098                0.979875462     -27.1430983
8.1                   0.97981296     -27.1951745
8.102                  0.9797504     -27.2472259
8.104                0.979687783     -27.2992526
8.106                0.979605624     -27.3519326
8.108                0.979523301     -27.4045852
8.11                 0.979440815     -27.4572103
8.112                0.979358165     -27.5098084
8.114                0.979257761     -27.5626167
8.116                0.979157137     -27.6153943
8.118                0.979056299     -27.6681413
8.12                 0.978955247      -27.720858
8.122                0.978841547     -27.7734104
8.124                0.978727651     -27.8259288
8.126                0.978613558     -27.8784132
8.128                 0.97849927     -27.9308639
8.13                 0.978379727     -27.9829643
8.132                0.978260062     -28.0350277
8.134                0.978140278     -28.0870543
8.136                0.978020375     -28.1390443
8.138                0.977903499     -28.1906941
8.14                 0.977786607     -28.2423054
8.142                0.977669699     -28.2938782
8.144                0.977552776      -28.345413
8.146                0.977446111     -28.3968602
8.148                0.977339522     -28.4482687
8.15                  0.97723301     -28.4996388
8.152                0.977126575     -28.5509706
8.154                0.977035093     -28.6026308
8.156                 0.97694374     -28.6542536
8.158                0.976852514      -28.705839
8.16                 0.976761415     -28.7573874
8.162                 0.97668661     -28.8097396
8.164                0.976611928      -28.862056
8.166                0.976537367     -28.9143368
8.168                0.976462928     -28.9665822
8.17                 0.976402555      -29.020108
8.172                0.976342262     -29.0735994
8.174                0.976282047     -29.1270566
8.176                 0.97622191       -29.18048
8.178                0.976170876     -29.2355231
8.18                 0.976119863     -29.2905318
8.182                0.976068872     -29.3455066
8.184                0.976017899     -29.4004475
8.186                0.975969303     -29.4572162
8.188                 0.97592068     -29.5139494
8.19                  0.97587203     -29.5706473
8.192                0.975823351     -29.6273102
8.194                 0.97576996     -29.6858278
8.196                0.975716506     -29.7443076
8.198                 0.97566299     -29.8027496
8.2                  0.975609409     -29.8611542