! TOUCHSTONE file generated by CST DESIGN STUDIO
! Date and time: Mon Feb 10 16:55:56 2025
! Project name: C:\Work\MatlabApps\UnitCellType2OptimizationMatlab\CST\unitcell.cst
! Tree item: Tasks\Sweep1\SPara1\S-Parameters
! Header version: 2024
! Port assignment regex: !\s*Touchstone port\s*([0-9]+)\s*=\s*(CST MWS port|CST DES external port|CST DES block port)\s*(.+)\s* \(\"(.*)\"\)(\s*mode\s*([0-9]+))?.*
! Touchstone port assignment:
! Touchstone port 1 = CST DES external port 1 ("")
# GHz S MA R 50
7                    0.991436823       -9.484523
7.002                0.991501462     -9.50108017
7.004                0.991566177     -9.51763353
7.006                0.991630968     -9.53418311
7.008                0.991695835     -9.55072904
7.01                 0.991768759     -9.56908992
7.012                0.991841789     -9.58744442
7.014                0.991914924      -9.6057926
7.016                0.991988162     -9.62413469
7.018                0.992055195     -9.64427707
7.02                  0.99212236     -9.66441069
7.022                0.992189658      -9.6845356
7.024                0.992257088     -9.70465187
7.026                0.992306409     -9.72620766
7.028                0.992355903     -9.74775389
7.03                 0.992405569     -9.76929048
7.032                0.992455407     -9.79081747
7.034                0.992479725     -9.81318816
7.036                0.992504234     -9.83555115
7.038                0.992528933     -9.85790645
7.04                 0.992553823     -9.88025409
7.042                0.992551168      -9.9027713
7.044                0.992548648      -9.9252849
7.046                0.992546263      -9.9477949
7.048                0.992544012      -9.9703013
7.05                 0.992517046     -9.99235694
7.052                0.992490089     -10.0144125
7.054                0.992463142     -10.0364679
7.056                0.992436203     -10.0585233
7.058                0.992390934     -10.0796505
7.06                 0.992345539     -10.1007786
7.062                 0.99230002     -10.1219079
7.064                0.992254377     -10.1430382
7.066                 0.99219888     -10.1629406
7.068                0.992143175     -10.1828437
7.07                 0.992087264     -10.2027478
7.072                0.992031148     -10.2226527
7.074                0.991974467     -10.2412247
7.076                0.991917549     -10.2597977
7.078                0.991860396     -10.2783717
7.08                 0.991803008     -10.2969467
7.082                0.991754216     -10.3142726
7.084                0.991705191        -10.3316
7.086                0.991655933     -10.3489291
7.088                0.991606446     -10.3662597
7.09                 0.991573568     -10.3826069
7.092                0.991540498     -10.3989556
7.094                0.991507235     -10.4153058
7.096                0.991473779     -10.4316575
7.098                0.991462803     -10.4474633
7.1                   0.99145172     -10.4632698
7.102                0.991440529      -10.479077
7.104                0.991429229     -10.4948849
7.106                0.991443106     -10.5107104
7.108                0.991456981     -10.5265359
7.11                 0.991470852     -10.5423615
7.112                 0.99148472      -10.558187
7.114                0.991522145     -10.5746563
7.116                0.991559652      -10.591125
7.118                0.991597242      -10.607593
7.12                 0.991634915     -10.6240607
7.122                0.991689879     -10.6417331
7.124                0.991744978     -10.6594035
7.126                0.991800214      -10.677072
7.128                0.991855585     -10.6947386
7.13                 0.991917951     -10.7139799
7.132                 0.99198049      -10.733217
7.134                  0.9920432       -10.75245
7.136                 0.99210608     -10.7716789
7.138                0.992163635     -10.7925544
7.14                 0.992221382     -10.8134248
7.142                0.992279321     -10.8342898
7.144                0.992337453     -10.8551496
7.146                0.992378539     -10.8773922
7.148                0.992419802     -10.8996304
7.15                 0.992461241      -10.921864
7.152                0.992502856     -10.9440931
7.154                0.992519161     -10.9671509
7.156                0.992535579      -10.990206
7.158                 0.99255211     -11.0132585
7.16                 0.992568752     -11.0363082
7.162                0.992557144     -11.0594689
7.164                0.992545558     -11.0826287
7.166                0.992533994     -11.1057877
7.168                0.992522452     -11.1289459
7.17                 0.992485821     -11.1515041
7.172                0.992449113     -11.1740633
7.174                0.992412331     -11.1966234
7.176                0.992375474     -11.2191844
7.178                0.992321804      -11.240599
7.18                  0.99226797      -11.262016
7.182                0.992213973     -11.2834355
7.184                0.992159814     -11.3048574
7.186                0.992100063     -11.3248677
7.188                 0.99204009     -11.3448808
7.19                 0.991979895     -11.3648968
7.192                0.991919478     -11.3849156
7.194                0.991864787     -11.4035697
7.196                0.991809874     -11.4222256
7.198                 0.99175474     -11.4408832
7.2                  0.991699384     -11.4595425
7.202                0.991659012      -11.477143
7.204                0.991618484     -11.4947441
7.206                0.991577802     -11.5123458
7.208                0.991536966     -11.5299479
7.21                 0.991516715     -11.5469737
7.212                0.991496397     -11.5640005
7.214                 0.99147601     -11.5810281
7.216                0.991455555     -11.5980568
7.218                0.991457356     -11.6150423
7.22                 0.991459141     -11.6320296
7.222                 0.99146091     -11.6490188
7.224                0.991462661     -11.6660099
7.226                 0.99148465     -11.6834611
7.228                0.991506653     -11.7009133
7.23                 0.991528669     -11.7183664
7.232                0.991550699     -11.7358205
7.234                0.991588238     -11.7541385
7.236                0.991625844     -11.7724552
7.238                0.991663518     -11.7907706
7.24                  0.99170126     -11.8090847
7.242                0.991747914      -11.828541
7.244                0.991794709     -11.8479949
7.246                0.991841645     -11.8674463
7.248                0.991888725     -11.8868953
7.25                 0.991936841     -11.9076272
7.252                0.991985141     -11.9283572
7.254                0.992033626     -11.9490852
7.256                0.992082294     -11.9698114
7.258                0.992123601     -11.9917824
7.26                 0.992165088     -12.0137513
7.262                0.992206752     -12.0357181
7.264                 0.99224859     -12.0576827
7.266                0.992275259     -12.0806688
7.268                 0.99230209     -12.1036522
7.27                 0.992329084     -12.1266327
7.272                0.992356241     -12.1496104
7.274                0.992362491     -12.1732015
7.276                0.992368861     -12.1967917
7.278                0.992375352     -12.2203812
7.28                 0.992381964     -12.2439699
7.282                0.992365211     -12.2676396
7.284                 0.99234846     -12.2913112
7.286                 0.99233171     -12.3149847
7.288                0.992314961     -12.3386601
7.29                 0.992276673     -12.3618296
7.292                0.992238249     -12.3850016
7.294                0.992199688     -12.4081759
7.296                0.992160992     -12.4313524
7.298                0.992107247     -12.4535115
7.3                  0.992053282     -12.4756725
7.302                0.991999098     -12.4978356
7.304                0.991944697     -12.5200006
7.306                0.991885262     -12.5408464
7.308                0.991825583     -12.5616949
7.31                 0.991765659     -12.5825463
7.312                0.991705492     -12.6034005
7.314                0.991651613       -12.62293
7.316                0.991597507     -12.6424627
7.318                0.991543171     -12.6619985
7.32                 0.991488606     -12.6815374
7.322                0.991450284     -12.7000458
7.324                0.991411815      -12.718556
7.326                0.991373197      -12.737068
7.328                 0.99133443     -12.7555817
7.33                  0.99131828     -12.7736003
7.332                0.991302111     -12.7916198
7.334                0.991285921     -12.8096402
7.336                0.991269713     -12.8276617
7.338                0.991277464     -12.8458253
7.34                 0.991285305     -12.8639902
7.342                0.991293235     -12.8821565
7.344                0.991301254     -12.9003242
7.346                0.991329458     -12.9192306
7.348                0.991357802     -12.9381384
7.35                 0.991386285     -12.9570475
7.352                0.991414908     -12.9759578
7.354                0.991456182     -12.9960261
7.356                0.991497608     -13.0160945
7.358                0.991539183      -13.036163
7.36                 0.991580909     -13.0562316
7.362                0.991626022     -13.0776336
7.364                0.991671286     -13.0990343
7.366                0.991716702     -13.1204337
7.368                0.991762271     -13.1418318
7.37                  0.99180222     -13.1645011
7.372                 0.99184232     -13.1871688
7.374                 0.99188257     -13.2098349
7.376                 0.99192297     -13.2324995
7.378                0.991950494     -13.2561877
7.38                  0.99197815     -13.2798752
7.382                0.992005937     -13.3035618
7.384                0.992033854     -13.3272476
7.386                0.992044261     -13.3515797
7.388                0.992054757     -13.3759119
7.39                 0.992065342     -13.4002443
7.392                0.992076017     -13.4245768
7.394                0.992067373     -13.4491346
7.396                0.992058757     -13.4736934
7.398                0.992050172     -13.4982531
7.4                  0.992041616     -13.5228139
7.402                0.992014786      -13.547171
7.404                0.991987915     -13.5715297
7.406                0.991961001     -13.5958901
7.408                0.991934047     -13.6202521
7.41                 0.991892346     -13.6440349
7.412                0.991850528     -13.6678196
7.414                0.991808593     -13.6916062
7.416                0.991766542     -13.7153948
7.418                0.991715471     -13.7383135
7.42                  0.99166422     -13.7612341
7.422                 0.99161279     -13.7841565
7.424                0.991561181     -13.8070807
7.426                0.991507992     -13.8289752
7.428                0.991454593     -13.8508713
7.43                 0.991400983     -13.8727692
7.432                0.991347165     -13.8946688
7.434                0.991300024     -13.9155628
7.436                0.991252689     -13.9364586
7.438                0.991205159     -13.9573562
7.44                 0.991157435     -13.9782557
7.442                0.991124103     -13.9983707
7.444                0.991090637     -14.0184877
7.446                0.991057037     -14.0386069
7.448                0.991023303     -14.0587283
7.45                 0.991009364      -14.078484
7.452                0.990995389     -14.0982419
7.454                0.990981375     -14.1180018
7.456                0.990967326     -14.1377637
7.458                0.990974828      -14.157699
7.46                 0.990982407     -14.1776359
7.462                0.990990064     -14.1975742
7.464                0.990997798     -14.2175141
7.466                0.991024353     -14.2381874
7.468                0.991051093     -14.2588616
7.47                 0.991078015     -14.2795366
7.472                0.991105119     -14.3002124
7.474                 0.99114418      -14.322065
7.476                0.991183488     -14.3439178
7.478                0.991223041     -14.3657709
7.48                 0.991262841     -14.3876241
7.482                0.991305036     -14.4108765
7.484                0.991347486     -14.4341287
7.486                0.991390189     -14.4573805
7.488                0.991433145     -14.4806321
7.49                 0.991468391     -14.5052282
7.492                0.991503847     -14.5298238
7.494                0.991539513     -14.5544188
7.496                0.991575388     -14.5790135
7.498                0.991595331     -14.6046426
7.5                  0.991615403     -14.6302716
7.502                0.991635604     -14.6559007
7.504                0.991655935     -14.6815298
7.506                0.991655673     -14.7077064
7.508                0.991655435     -14.7338842
7.51                 0.991655224     -14.7600633
7.512                0.991655038     -14.7862435
7.514                0.991633909     -14.8124281
7.516                0.991612697      -14.838615
7.518                0.991591403     -14.8648043
7.52                 0.991570027     -14.8909958
7.522                0.991531347     -14.9167083
7.524                0.991492499     -14.9424233
7.526                0.991453485      -14.968141
7.528                0.991414302     -14.9938613
7.53                 0.991364345     -15.0187685
7.532                0.991314184     -15.0436776
7.534                 0.99126382     -15.0685887
7.536                0.991213251     -15.0935018
7.538                0.991159643     -15.1174615
7.54                  0.99110585     -15.1414222
7.542                0.991051873     -15.1653839
7.544                0.990997711     -15.1893467
7.546                0.990948029     -15.2124064
7.548                0.990898219     -15.2354663
7.55                  0.99084828     -15.2585267
7.552                0.990798213     -15.2815874
7.554                0.990758836     -15.3039487
7.556                0.990719396     -15.3263103
7.558                0.990679892     -15.3486723
7.56                 0.990640324     -15.3710347
7.562                0.990615756     -15.3930088
7.564                 0.99059118     -15.4149837
7.566                0.990566595     -15.4369594
7.568                0.990542004      -15.458936
7.57                 0.990534432     -15.4809027
7.572                0.990526898     -15.5028706
7.574                0.990519403     -15.5248398
7.576                0.990511947     -15.5468102
7.578                0.990521121     -15.5691701
7.58                 0.990530384     -15.5915313
7.582                0.990539735     -15.6138939
7.584                0.990549173     -15.6362577
7.586                0.990572204     -15.6593915
7.588                0.990595381     -15.6825262
7.59                 0.990618706     -15.7056618
7.592                0.990642177     -15.7287982
7.594                0.990673734     -15.7530028
7.596                0.990705502     -15.7772076
7.598                 0.99073748     -15.8014125
7.6                  0.990769669     -15.8256176
7.602                0.990802501     -15.8510532
7.604                0.990835592     -15.8764885
7.606                 0.99086894     -15.9019234
7.608                0.990902546      -15.927358
7.61                 0.990928556     -15.9539934
7.612                0.990954827     -15.9806283
7.614                0.990981359     -16.0072628
7.616                0.991008151     -16.0338968
7.618                 0.99101994     -16.0614953
7.62                 0.991031927     -16.0890937
7.622                0.991044114     -16.1166921
7.624                0.991056499     -16.1442904
7.626                0.991049045     -16.1724278
7.628                0.991041669     -16.2005657
7.63                 0.991034369     -16.2287042
7.632                0.991027147     -16.2568432
7.634                 0.99099915     -16.2849954
7.636                0.990971076     -16.3131489
7.638                0.990942924     -16.3413036
7.64                 0.990914694     -16.3694597
7.642                0.990869178     -16.3971148
7.644                 0.99082344     -16.4247717
7.646                0.990777481     -16.4524305
7.648                0.990731298      -16.480091
7.65                 0.990674934     -16.5068682
7.652                0.990618261     -16.5336472
7.654                 0.99056128      -16.560428
7.656                 0.99050399     -16.5872108
7.658                0.990445689     -16.6129591
7.66                 0.990387089     -16.6387086
7.662                0.990328189     -16.6644591
7.664                0.990268989     -16.6902107
7.666                0.990217734      -16.715025
7.668                0.990166289     -16.7398393
7.67                 0.990114655     -16.7646536
7.672                0.990062833     -16.7894679
7.674                0.990025747     -16.8136689
7.676                0.989988649     -16.8378691
7.678                0.989951537     -16.8620685
7.68                 0.989914413     -16.8862671
7.682                0.989895313     -16.9103079
7.684                0.989876375     -16.9343477
7.686                  0.9898576     -16.9583864
7.688                0.989838989     -16.9824241
7.69                 0.989837939       -17.00679
7.692                0.989837173     -17.0311551
7.694                0.989836689     -17.0555192
7.696                0.989836489     -17.0798825
7.698                0.989850277      -17.104982
7.7                  0.989864389     -17.1300809
7.702                0.989878826     -17.1551789
7.704                0.989893587     -17.1802763
7.706                0.989916723     -17.2063908
7.708                0.989940163     -17.2325045
7.71                 0.989963907     -17.2586175
7.712                0.989987954     -17.2847297
7.714                0.990013876     -17.3119855
7.716                0.990040052     -17.3392405
7.718                0.990066483     -17.3664946
7.72                 0.990093167     -17.3937481
7.722                0.990115256      -17.422118
7.724                 0.99013755     -17.4504872
7.726                0.990160048     -17.4788556
7.728                0.990182753     -17.5072232
7.73                 0.990195172     -17.5365541
7.732                 0.99020776     -17.5658844
7.734                0.990220518     -17.5952139
7.736                0.990233446     -17.6245425
7.738                0.990231646     -17.6545705
7.74                 0.990229989     -17.6845974
7.742                0.990228476     -17.7146234
7.744                0.990227105     -17.7446484
7.746                0.990208542     -17.7750233
7.748                0.990190088     -17.8053968
7.75                 0.990171743     -17.8357689
7.752                0.990153507     -17.8661395
7.754                0.990118026     -17.8964695
7.756                0.990082595     -17.9267975
7.758                0.990047212     -17.9571235
7.76                 0.990011879     -17.9874476
7.762                0.989962236     -18.0173478
7.764                0.989912552     -18.0472454
7.766                0.989862827     -18.0771407
7.768                0.989813063     -18.1070336
7.77                 0.989754738     -18.1361974
7.772                0.989696274     -18.1653587
7.774                0.989637674     -18.1945175
7.776                0.989578936      -18.223674
7.778                0.989519457     -18.2519492
7.78                 0.989459776     -18.2802224
7.782                0.989399893     -18.3084934
7.784                0.989339807     -18.3367624
7.786                0.989287428     -18.3642122
7.788                0.989234867     -18.3916602
7.79                 0.989182124     -18.4191065
7.792                  0.9891292     -18.4465509
7.794                0.989090973     -18.4734544
7.796                0.989052717     -18.5003557
7.798                 0.98901443     -18.5272547
7.8                  0.988976114     -18.5541515
7.802                0.988956219     -18.5809658
7.804                0.988936594     -18.6077764
7.806                0.988917239     -18.6345833
7.808                0.988898153     -18.6613866
7.81                 0.988896791     -18.6886378
7.812                0.988896103     -18.7158833
7.814                0.988896088      -18.743123
7.816                0.988896747     -18.7703569
7.818                0.988910162     -18.7985187
7.82                 0.988924663     -18.8266724
7.822                0.988940251     -18.8548181
7.824                0.988956928     -18.8829557
7.826                0.988978221     -18.9123514
7.828                0.989000914      -18.941737
7.83                 0.989025008     -18.9711122
7.832                0.989050504     -19.0004768
7.834                0.989071404     -19.0312034
7.836                0.989093852     -19.0619176
7.838                 0.98911785      -19.092619
7.84                 0.989143398     -19.1233073
7.842                0.989156098     -19.1552394
7.844                0.989170347     -19.1871571
7.846                0.989186147     -19.2190598
7.848                0.989203498     -19.2509471
7.85                 0.989202029     -19.2837852
7.852                0.989202075     -19.3166064
7.854                0.989203636     -19.3494102
7.856                0.989206713      -19.382196
7.858                0.989187742     -19.4155433
7.86                  0.98917045     -19.4488688
7.862                0.989154838     -19.4821719
7.864                0.989140906     -19.5154518
7.866                0.989103506     -19.5489045
7.868                0.989068638      -19.582322
7.87                 0.989036303     -19.6157027
7.872                  0.9890065     -19.6490451
7.874                0.988950408     -19.6822922
7.876                0.988899731     -19.7154646
7.878                0.988854461     -19.7485555
7.88                 0.988814581     -19.7815584
7.882                0.988732113     -19.8145572
7.884                 0.98866642     -19.8473297
7.886                0.988617241     -19.8798171
7.888                0.988584268     -19.9119622
7.89                 0.988384947     -19.9471192
7.892                0.988291977     -19.9813765
7.894                0.988286345     -20.0127142
7.896                0.988339189     -20.0397141
7.898                0.988134852     -20.0675259
7.9                  0.988011059     -20.0992261
7.902                0.987997093     -20.1326002
7.904                0.988104643      -20.164823
7.906                0.988022014     -20.1954978
7.908                 0.98796097     -20.2262844
7.91                 0.987921754     -20.2570886
7.912                0.987904495     -20.2878162
7.914                0.987856142      -20.318338
7.916                0.987815624     -20.3488437
7.918                0.987782965     -20.3793219
7.92                 0.987758184     -20.4097611
7.922                0.987731568      -20.440385
7.924                0.987709192     -20.4709887
7.926                0.987691067     -20.5015692
7.928                0.987677199     -20.5321237
7.93                 0.987669317      -20.563271
7.932                0.987664125     -20.5944018
7.934                0.987661627     -20.6255152
7.936                0.987661829     -20.6566101
7.938                0.987668719     -20.6886923
7.94                 0.987677361     -20.7207621
7.942                0.987687759     -20.7528191
7.944                0.987699917     -20.7848633
7.946                 0.98771509     -20.8181839
7.948                0.987731364     -20.8514952
7.95                 0.987748741     -20.8847972
7.952                0.987767222     -20.9180898
7.954                0.987782296     -20.9527852
7.956                0.987798042     -20.9874732
7.958                0.987814461     -21.0221536
7.96                 0.987831554     -21.0568264
7.962                0.987837893     -21.0927986
7.964                 0.98784468     -21.1287636
7.966                0.987851917     -21.1647213
7.968                0.987859603     -21.2006718
7.97                 0.987850116     -21.2376136
7.972                0.987841023     -21.2745471
7.974                0.987832323     -21.3114725
7.976                0.987824017     -21.3483897
7.978                0.987794997     -21.3858403
7.98                 0.987766418     -21.4232807
7.982                0.987738282     -21.4607106
7.984                 0.98771059     -21.4981303
7.986                0.987662347     -21.5355975
7.988                0.987614622     -21.5730514
7.99                 0.987567421      -21.610492
7.992                0.987520745     -21.6479193
7.994                0.987457597     -21.6849747
7.996                0.987395018     -21.7220139
7.998                0.987333011      -21.759037
8                    0.987271579     -21.7960438
8.002                0.987200597     -21.8324155
8.004                0.987130159     -21.8687694
8.006                0.987060267     -21.9051053
8.008                0.986990923     -21.9414233
8.01                 0.986920225     -21.9770608
8.012                0.986849963     -22.0126803
8.014                0.986780138      -22.048282
8.016                0.986710755     -22.0838659
8.018                0.986647784     -22.1189075
8.02                 0.986585094     -22.1539328
8.022                0.986522688      -22.188942
8.024                0.986460566     -22.2239351
8.026                0.986410569     -22.2586851
8.028                0.986360712     -22.2934211
8.03                 0.986310996     -22.3281432
8.032                0.986261425     -22.3628514
8.034                0.986227016     -22.3976852
8.036                0.986192673      -22.432507
8.038                0.986158395     -22.4673167
8.04                 0.986124183     -22.5021146
8.042                0.986105073     -22.5374241
8.044                0.986086042     -22.5727226
8.046                 0.98606709     -22.6080104
8.048                0.986048215     -22.6432874
8.05                 0.986041869     -22.6794272
8.052                0.986035688     -22.7155565
8.054                0.986029668     -22.7516751
8.056                0.986023811     -22.7877832
8.058                0.986025839     -22.8250152
8.06                 0.986028137     -22.8622356
8.062                0.986030707     -22.8994447
8.064                0.986033547     -22.9366424
8.066                0.986038346     -22.9751343
8.068                0.986043497     -23.0136134
8.07                 0.986049001     -23.0520798
8.072                0.986054856     -23.0905338
8.074                 0.98605614     -23.1303075
8.076                0.986057785      -23.170067
8.078                0.986059792     -23.2098124
8.08                 0.986062161     -23.2495437
8.082                0.986053681     -23.2904894
8.084                 0.98604548     -23.3314197
8.086                0.986037558     -23.3723347
8.088                0.986029916     -23.4132344
8.09                 0.986006522     -23.4550958
8.092                 0.98598325     -23.4969408
8.094                0.985960103     -23.5387692
8.096                0.985937077     -23.5805813
8.098                0.985895694     -23.6229601
8.1                   0.98585426     -23.6653207
8.102                0.985812777     -23.7076633
8.104                0.985771242      -23.749988
8.106                 0.98571185     -23.7924458
8.108                0.985652279     -23.8348834
8.11                  0.98559253     -23.8773007
8.112                0.985532602      -23.919698
8.114                0.985458681     -23.9618172
8.116                0.985384545     -24.0039136
8.118                0.985310198     -24.0459873
8.12                 0.985235638     -24.0880385
8.122                0.985153809       -24.12952
8.124                0.985071838     -24.1709765
8.126                0.984989725     -24.2124079
8.128                 0.98490747     -24.2538146
8.13                 0.984826149     -24.2945825
8.132                0.984744826     -24.3353236
8.134                0.984663503     -24.3760381
8.136                0.984582181      -24.416726
8.138                0.984509817     -24.4569244
8.14                 0.984437606     -24.4970953
8.142                 0.98436555     -24.5372391
8.144                0.984293649     -24.5773559
8.146                0.984236624     -24.6173558
8.148                0.984179859     -24.6573291
8.15                 0.984123353     -24.6972758
8.152                0.984067107     -24.7371962
8.154                 0.98402832     -24.7774907
8.156                0.983989808     -24.8177601
8.158                0.983951566     -24.8580046
8.16                 0.983913596     -24.8982244
8.162                0.983891954     -24.9393058
8.164                0.983870496     -24.9803639
8.166                0.983849222     -25.0213986
8.168                0.983828131     -25.0624104
8.17                 0.983818925     -25.1046936
8.172                0.983809761     -25.1469546
8.174                0.983800636     -25.1891933
8.176                 0.98379155     -25.2314103
8.178                0.983787855     -25.2751181
8.18                  0.98378406     -25.3188033
8.182                0.983780162     -25.3624662
8.184                0.983776158     -25.4061068
8.186                0.983770324     -25.4512886
8.188                0.983764296     -25.4964464
8.19                  0.98375807     -25.5415805
8.192                0.983751645      -25.586691
8.194                0.983736865     -25.6332136
8.196                0.983721849     -25.6797101
8.198                0.983706598     -25.7261805
8.2                  0.983691109      -25.772625