! TOUCHSTONE file generated by CST DESIGN STUDIO
! Date and time: Mon Feb 10 16:55:48 2025
! Project name: C:\Work\MatlabApps\UnitCellType2OptimizationMatlab\CST\unitcell.cst
! Tree item: Tasks\Sweep1\SPara1\S-Parameters
! Header version: 2024
! Port assignment regex: !\s*Touchstone port\s*([0-9]+)\s*=\s*(CST MWS port|CST DES external port|CST DES block port)\s*(.+)\s* \(\"(.*)\"\)(\s*mode\s*([0-9]+))?.*
! Touchstone port assignment:
! Touchstone port 1 = CST DES external port 1 ("")
# GHz S MA R 50
7                    0.992574055     -13.6751761
7.002                0.992575167     -13.6924298
7.004                0.992576288     -13.7096846
7.006                0.992577419     -13.7269406
7.008                 0.99257856     -13.7441977
7.01                 0.992600001     -13.7621976
7.012                0.992621499     -13.7801983
7.014                0.992643052     -13.7981998
7.016                0.992664663     -13.8162023
7.018                0.992699668     -13.8353696
7.02                  0.99273477     -13.8545373
7.022                0.992769969     -13.8737055
7.024                0.992805264     -13.8928742
7.026                0.992844946     -13.9134239
7.028                0.992884753      -13.933974
7.03                 0.992924686     -13.9545244
7.032                0.992964744     -13.9750752
7.034                0.992999806     -13.9969874
7.036                   0.993035     -14.0189003
7.038                0.993070324     -14.0408137
7.04                 0.993105781     -14.0627278
7.042                0.993128096     -14.0857729
7.044                 0.99315052     -14.1088194
7.046                0.993173052     -14.1318672
7.048                0.993195692     -14.1549164
7.05                 0.993199546     -14.1787082
7.052                0.993203459     -14.2025022
7.054                0.993207431     -14.2262984
7.056                0.993211462     -14.2500968
7.058                0.993194263     -14.2741598
7.06                 0.993177055     -14.2982256
7.062                0.993159841     -14.3222942
7.064                0.993142621     -14.3463656
7.066                0.993105221     -14.3702033
7.068                0.993067748      -14.394044
7.07                 0.993030204     -14.4178877
7.072                0.992992589     -14.4417343
7.074                  0.9929391     -14.4649121
7.076                0.992885489     -14.4880925
7.078                0.992831756     -14.5112758
7.08                   0.9927779     -14.5344619
7.082                0.992715213     -14.5566688
7.084                0.992652378      -14.578878
7.086                0.992589396     -14.6010896
7.088                0.992526267     -14.6233034
7.09                 0.992462959     -14.6444122
7.092                0.992399507     -14.6655228
7.094                0.992335911     -14.6866353
7.096                0.992272171     -14.7077496
7.098                0.992217112     -14.7278543
7.1                  0.992161936     -14.7479605
7.102                0.992106643     -14.7680682
7.104                0.992051232     -14.7881776
7.106                0.992012079     -14.8075762
7.108                0.991972849     -14.8269764
7.11                 0.991933541      -14.846378
7.112                0.991894156     -14.8657811
7.114                0.991875691     -14.8849469
7.116                0.991857196     -14.9041141
7.118                0.991838669     -14.9232828
7.12                 0.991820112     -14.9424529
7.122                0.991823261     -14.9619362
7.124                0.991826429     -14.9814207
7.126                0.991829614     -15.0009065
7.128                0.991832819     -15.0203936
7.13                 0.991854252     -15.0407213
7.132                0.991875751       -15.06105
7.134                0.991897314     -15.0813796
7.136                0.991918944     -15.1017101
7.138                0.991951698     -15.1232781
7.14                 0.991984557     -15.1448469
7.142                0.992017521     -15.1664165
7.144                0.992050589     -15.1879868
7.146                 0.99208545     -15.2109735
7.148                0.992120437     -15.2339611
7.15                 0.992155548     -15.2569496
7.152                0.992190783      -15.279939
7.154                0.992218266     -15.3042721
7.156                0.992245867     -15.3286065
7.158                0.992273587     -15.3529423
7.16                 0.992301424     -15.3772796
7.162                0.992313575     -15.4026599
7.164                0.992325809     -15.4280422
7.166                0.992338127     -15.4534267
7.168                 0.99235053     -15.4788134
7.17                 0.992342487     -15.5047876
7.172                0.992334469     -15.5307647
7.174                0.992326477     -15.5567448
7.176                0.992318511     -15.5827277
7.178                0.992289251     -15.6087715
7.18                 0.992259949     -15.6348186
7.182                0.992230607      -15.660869
7.184                0.992201224     -15.6869229
7.186                  0.9921536     -15.7125462
7.188                0.992105877     -15.7381729
7.19                 0.992058053     -15.7638029
7.192                 0.99201013     -15.7894363
7.194                 0.99195007     -15.8142755
7.196                0.991889872     -15.8391177
7.198                0.991829538     -15.8639628
7.2                  0.991769066     -15.8888108
7.202                0.991704466      -15.912676
7.204                0.991639718     -15.9365436
7.206                0.991574824     -15.9604137
7.208                0.991509782     -15.9842863
7.21                 0.991448923     -16.0071991
7.212                0.991387931      -16.030114
7.214                0.991326804     -16.0530308
7.216                0.991265545     -16.0759498
7.218                 0.99121584     -16.0981084
7.22                 0.991166033     -16.1202689
7.222                0.991116122     -16.1424312
7.224                0.991066108     -16.1645953
7.226                0.991032853     -16.1863546
7.228                0.990999534     -16.2081156
7.23                 0.990966152     -16.2298783
7.232                0.990932709     -16.2516428
7.234                0.990918379     -16.2734458
7.236                0.990904031     -16.2952505
7.238                0.990889665     -16.3170568
7.24                 0.990875282     -16.3388647
7.242                0.990879163     -16.3611751
7.244                0.990883071      -16.383487
7.246                0.990887006     -16.4058003
7.248                0.990890967     -16.4281151
7.25                 0.990909172     -16.4513517
7.252                0.990927445     -16.4745896
7.254                0.990945786     -16.4978289
7.256                0.990964195     -16.5210695
7.258                0.990990257     -16.5455208
7.26                 0.991016419     -16.5699734
7.262                0.991042678     -16.5944273
7.264                0.991069037     -16.6188825
7.266                0.991094831     -16.6446708
7.268                0.991120736     -16.6704606
7.27                 0.991146752      -16.696252
7.272                0.991172879      -16.722045
7.274                0.991190057      -16.749077
7.276                0.991207333     -16.7761112
7.278                0.991224707     -16.8031475
7.28                  0.99124218     -16.8301861
7.282                0.991243679     -16.8581761
7.284                0.991245234     -16.8861691
7.286                0.991246847     -16.9141652
7.288                0.991248518     -16.9421642
7.29                 0.991229988     -16.9706673
7.292                0.991211455     -16.9991741
7.294                 0.99119292     -17.0276845
7.296                0.991174383     -17.0561986
7.298                0.991135242     -17.0846998
7.3                  0.991096034      -17.113205
7.302                0.991056759     -17.1417141
7.304                0.991017415      -17.170227
7.306                0.990960985     -17.1982434
7.308                0.990904433     -17.2262636
7.31                 0.990847759     -17.2542876
7.312                0.990790964     -17.2823152
7.314                0.990723917     -17.3094953
7.316                0.990656718     -17.3366787
7.318                0.990589366     -17.3638654
7.32                 0.990521863     -17.3910555
7.322                0.990452847     -17.4172506
7.324                0.990383676     -17.4434484
7.326                 0.99031435      -17.469649
7.328                0.990244868     -17.4958523
7.33                 0.990182719     -17.5211553
7.332                0.990120437     -17.5464606
7.334                 0.99005802     -17.5717682
7.336                0.989995469     -17.5970782
7.338                0.989947375      -17.621782
7.34                 0.989899183     -17.6464879
7.342                0.989850895     -17.6711958
7.344                0.989802511     -17.6959058
7.346                0.989772652      -17.720451
7.348                0.989742742     -17.7449981
7.35                  0.98971278     -17.7695472
7.352                0.989682766     -17.7940982
7.354                0.989671738     -17.8189742
7.356                0.989660707      -17.843852
7.358                0.989649671     -17.8687318
7.36                  0.98963863     -17.8936134
7.362                0.989643567     -17.9192633
7.364                0.989648543      -17.944915
7.366                0.989653557     -17.9705685
7.368                 0.98965861     -17.9962239
7.37                 0.989673976     -18.0229749
7.372                0.989689415     -18.0497279
7.374                0.989704927     -18.0764826
7.376                0.989720512     -18.1032392
7.378                0.989739188     -18.1312641
7.38                 0.989757956      -18.159291
7.382                0.989776817       -18.18732
7.384                0.989795771     -18.2153512
7.386                 0.98981026     -18.2446367
7.388                0.989824841     -18.2739248
7.39                 0.989839514     -18.3032154
7.392                0.989854279     -18.3325085
7.394                0.989857785     -18.3628904
7.396                0.989861357     -18.3932756
7.398                0.989864996     -18.4236641
7.4                  0.989868703     -18.4540557
7.402                0.989856161     -18.4852167
7.404                0.989843641     -18.5163817
7.406                0.989831143     -18.5475505
7.408                0.989818667     -18.5787232
7.41                 0.989787468     -18.6102601
7.412                0.989756233     -18.6418013
7.414                0.989724963      -18.673347
7.416                0.989693657      -18.704897
7.418                 0.98964422     -18.7363698
7.42                 0.989594689     -18.7678471
7.422                0.989545065     -18.7993289
7.424                0.989495344     -18.8308152
7.426                0.989431187      -18.861819
7.428                0.989366889      -18.892827
7.43                 0.989302451     -18.9238393
7.432                0.989237873     -18.9548558
7.434                0.989165249     -18.9851069
7.436                 0.98909246     -19.0153617
7.438                0.989019506     -19.0456203
7.44                 0.988946388     -19.0758826
7.442                0.988873322     -19.1052616
7.444                0.988800092     -19.1346438
7.446                0.988726699     -19.1640293
7.448                0.988653143     -19.1934179
7.45                 0.988587901     -19.2220277
7.452                0.988522518     -19.2506403
7.454                0.988456995     -19.2792557
7.456                0.988391333     -19.3078739
7.458                0.988340814     -19.3360136
7.46                 0.988290194     -19.3641559
7.462                0.988239473     -19.3923007
7.464                0.988188651     -19.4204481
7.466                0.988156827     -19.4485791
7.468                0.988124952     -19.4767124
7.47                 0.988093025      -19.504848
7.472                0.988061044      -19.532986
7.474                0.988048092     -19.5616187
7.476                0.988035139     -19.5902537
7.478                0.988022183     -19.6188908
7.48                 0.988009224     -19.6475302
7.482                0.988011486     -19.6771299
7.484                0.988013792     -19.7067318
7.486                 0.98801614     -19.7363359
7.488                0.988018532     -19.7659423
7.49                 0.988029295     -19.7968299
7.492                0.988040133       -19.82772
7.494                0.988051046     -19.8586125
7.496                0.988062034     -19.8895077
7.498                0.988073069     -19.9218057
7.5                   0.98808419     -19.9541067
7.502                0.988095398     -19.9864107
7.504                0.988106694     -20.0187176
7.506                0.988109892     -20.0523315
7.508                0.988113164     -20.0859492
7.51                 0.988116509     -20.1195705
7.512                0.988119928     -20.1531955
7.514                0.988108807     -20.1878503
7.516                0.988097722     -20.2225095
7.518                0.988086673     -20.2571733
7.52                  0.98807566     -20.2918415
7.522                0.988046422     -20.3271412
7.524                0.988017165      -20.362446
7.526                0.987987889     -20.3977559
7.528                0.987958592     -20.4330709
7.53                 0.987910641     -20.4685768
7.532                0.987862609     -20.5040881
7.534                0.987814497     -20.5396047
7.536                0.987766304     -20.5751267
7.538                 0.98770205      -20.610433
7.54                 0.987637664     -20.6457446
7.542                0.987573144     -20.6810613
7.544                0.987508491     -20.7163833
7.546                0.987432871     -20.7511823
7.548                0.987357082      -20.785986
7.55                 0.987281123     -20.8207945
7.552                0.987204995     -20.8556077
7.554                0.987124581     -20.8897276
7.556                0.987043984     -20.9238516
7.558                0.986963203     -20.9579799
7.56                 0.986882239     -20.9921122
7.562                0.986804271     -21.0255454
7.564                0.986726127     -21.0589821
7.566                0.986647808     -21.0924226
7.568                0.986569315     -21.1258667
7.57                 0.986500548     -21.1587742
7.572                0.986431633     -21.1916851
7.574                 0.98636257     -21.2245993
7.576                0.986293359     -21.2575167
7.578                0.986239046     -21.2902059
7.58                 0.986184627     -21.3228982
7.582                  0.9861301     -21.3555935
7.584                0.986075465     -21.3882919
7.586                0.986038393     -21.4211813
7.588                0.986001261     -21.4540737
7.59                 0.985964068     -21.4869691
7.592                0.985926814     -21.5198674
7.594                0.985906658     -21.5534119
7.596                0.985886491     -21.5869592
7.598                0.985866311     -21.6205095
7.6                   0.98584612     -21.6540628
7.602                0.985839281     -21.6886839
7.604                0.985832472      -21.723308
7.606                0.985825695     -21.7579351
7.608                 0.98581895     -21.7925655
7.61                 0.985819021     -21.8285623
7.612                0.985819153     -21.8645625
7.614                0.985819346     -21.9005661
7.616                0.985819601     -21.9365731
7.618                0.985818467     -21.9740661
7.62                 0.985817403     -22.0115632
7.622                0.985816407     -22.0490644
7.624                0.985815479     -22.0865696
7.626                0.985804897     -22.1254569
7.628                0.985794362     -22.1643492
7.63                 0.985783876     -22.2032464
7.632                0.985773438     -22.2421486
7.634                0.985746691     -22.2821313
7.636                0.985719944     -22.3221198
7.638                  0.9856932     -22.3621142
7.64                 0.985666456     -22.4021144
7.642                0.985619777     -22.4427511
7.644                0.985573035     -22.4833943
7.646                0.985526232     -22.5240439
7.648                0.985479365        -22.5647
7.65                  0.98541271     -22.6054957
7.652                0.985345926     -22.6462981
7.654                0.985279015     -22.6871071
7.656                0.985211975     -22.7279227
7.658                0.985128991     -22.7684491
7.66                 0.985045822     -22.8089817
7.662                0.984962472     -22.8495206
7.664                0.984878938     -22.8900659
7.666                 0.98478614     -22.9300194
7.668                0.984693126     -22.9699785
7.67                 0.984599897     -23.0099432
7.672                0.984506454     -23.0499136
7.674                0.984411765     -23.0891951
7.676                0.984316855     -23.1284813
7.678                0.984221724     -23.1677724
7.68                 0.984126372     -23.2070682
7.682                 0.98403761     -23.2457785
7.684                0.983948644     -23.2844929
7.686                0.983859475     -23.3232114
7.688                0.983770101     -23.3619341
7.69                  0.98369343     -23.4003574
7.692                0.983616591     -23.4387844
7.694                0.983539583      -23.477215
7.696                0.983462407     -23.5156493
7.698                0.983401497     -23.5541734
7.7                  0.983340465      -23.592701
7.702                 0.98327931     -23.6312321
7.704                0.983218032     -23.6697667
7.706                0.983173546     -23.7088298
7.708                0.983128987     -23.7478964
7.71                 0.983084355     -23.7869666
7.712                 0.98303965     -23.8260404
7.714                0.983009422     -23.8660551
7.716                0.982979167     -23.9060737
7.718                0.982948887      -23.946096
7.72                  0.98291858     -23.9861223
7.722                0.982897955     -24.0274125
7.724                0.982877339     -24.0687069
7.726                0.982856735     -24.1100055
7.728                 0.98283614     -24.1513084
7.73                 0.982818804     -24.1940806
7.732                0.982801498     -24.2368579
7.734                0.982784222     -24.2796399
7.736                0.982766977     -24.3224268
7.738                0.982745668     -24.3667242
7.74                 0.982724386     -24.4110272
7.742                0.982703132     -24.4553358
7.744                0.982681905     -24.4996501
7.746                0.982649627      -24.545346
7.748                0.982617348     -24.5910483
7.75                 0.982585067     -24.6367571
7.752                0.982552784     -24.6824724
7.754                0.982503804     -24.7292835
7.756                 0.98245477     -24.7761018
7.758                0.982405684     -24.8229274
7.76                 0.982356543     -24.8697602
7.762                0.982287641     -24.9172836
7.764                0.982218616     -24.9648148
7.766                 0.98214947     -25.0123538
7.768                0.982080205     -25.0599005
7.77                 0.981991337     -25.1076715
7.772                 0.98190228     -25.1554502
7.774                0.981813033     -25.2032368
7.776                0.981723597     -25.2510312
7.778                0.981618263     -25.2986171
7.78                 0.981512684     -25.3462103
7.782                 0.98140686     -25.3938108
7.784                 0.98130079     -25.4414189
7.786                0.981185614     -25.4885155
7.788                 0.98107016     -25.5356187
7.79                 0.980954428     -25.5827284
7.792                0.980838418     -25.6298447
7.794                0.980721838     -25.6763407
7.796                0.980604975     -25.7228422
7.798                0.980487829     -25.7693493
7.8                    0.9803704     -25.8158621
7.802                0.980260983      -25.861889
7.804                0.980151304     -25.9079204
7.806                0.980041362     -25.9539565
7.808                0.979931156     -25.9999973
7.81                 0.979835736     -26.0458921
7.812                0.979740093     -26.0917906
7.814                0.979644227     -26.1376931
7.816                0.979548135     -26.1835994
7.818                0.979470397     -26.2298409
7.82                 0.979392485     -26.2760856
7.822                  0.9793144     -26.3223338
7.824                0.979236142     -26.3685854
7.826                0.979175855     -26.4157012
7.828                0.979115449     -26.4628202
7.83                 0.979054923     -26.5099424
7.832                0.978994278      -26.557068
7.834                0.978947507     -26.6055137
7.836                0.978900665     -26.6539628
7.838                0.978853749     -26.7024154
7.84                 0.978806759     -26.7508716
7.842                0.978766942     -26.8009649
7.844                0.978727084     -26.8510623
7.846                0.978687184      -26.901164
7.848                0.978647241     -26.9512699
7.85                  0.97860649     -27.0031351
7.852                0.978565705     -27.0550055
7.854                0.978524885     -27.1068809
7.856                0.978484028     -27.1587615
7.858                0.978434638     -27.2123289
7.86                 0.978385189     -27.2659021
7.862                 0.97833568     -27.3194812
7.864                 0.97828611     -27.3730662
7.866                0.978221802     -27.4280953
7.868                0.978157374     -27.4831301
7.87                 0.978092824     -27.5381708
7.872                0.978028151     -27.5932174
7.874                0.977944874     -27.6493691
7.876                0.977861361     -27.7055242
7.878                0.977777609     -27.7616827
7.88                 0.977693614      -27.817845
7.882                0.977590284     -27.8747242
7.884                 0.97748645     -27.9315948
7.886                0.977382088     -27.9884582
7.888                0.977277178     -28.0453156
7.89                 0.977157409     -28.1026015
7.892                0.977035678     -28.1597774
7.894                0.976911474     -28.2168938
7.896                0.976784645     -28.2740064
7.898                0.976647876     -28.3313543
7.9                  0.976511108     -28.3885603
7.902                0.976373129     -28.4456182
7.904                0.976232729     -28.5025527
7.906                 0.97608716     -28.5594541
7.908                0.975940969     -28.6163352
7.91                 0.975794113     -28.6731969
7.912                0.975646548     -28.7300407
7.914                 0.97549985     -28.7865998
7.916                0.975352664     -28.8431559
7.918                0.975204985     -28.8997093
7.92                 0.975056806     -28.9562602
7.922                0.974916879      -29.012629
7.924                0.974776537     -29.0689985
7.926                0.974635777     -29.1253688
7.928                0.974494595     -29.1817401
7.93                 0.974367881     -29.2382502
7.932                0.974240819     -29.2947625
7.934                0.974113408     -29.3512771
7.936                0.973985647     -29.4077939
7.938                0.973875984     -29.4649272
7.94                 0.973766047     -29.5220637
7.942                0.973655836     -29.5792034
7.944                0.973545351     -29.6363467
7.946                0.973452772     -29.6946413
7.948                0.973359993     -29.7529402
7.95                 0.973267013     -29.8112436
7.952                0.973173831     -29.8695515
7.954                0.973094413     -29.9295348
7.956                0.973014857     -29.9895238
7.958                0.972935162     -30.0495185
7.96                 0.972855328      -30.109519
7.962                0.972781814     -30.1715562
7.964                0.972708199     -30.2336005
7.966                0.972634482     -30.2956517
7.968                0.972560662     -30.3577101
7.97                 0.972483775     -30.4219565
7.972                0.972406788     -30.4862113
7.974                  0.9723297     -30.5504743
7.976                0.972252511     -30.6147459
7.978                0.972163073     -30.6810956
7.98                 0.972073497     -30.7474547
7.982                0.971983784     -30.8138233
7.984                0.971893932     -30.8802014
7.986                0.971784492     -30.9483483
7.988                0.971674842     -31.0165056
7.99                 0.971564982     -31.0846732
7.992                0.971454914     -31.1528513
7.994                0.971321422     -31.2223312
7.996                0.971187629     -31.2918217
7.998                0.971053537      -31.361323
8                    0.970919146      -31.430835
8.002                0.970761407     -31.5011313
8.004                0.970603277      -31.571438
8.006                0.970444755     -31.6417551
8.008                 0.97028584     -31.7120828
8.01                 0.970107389     -31.7827637
8.012                0.969928464     -31.8534542
8.014                 0.96974907     -31.9241544
8.016                0.969569205     -31.9948643
8.018                0.969376453     -32.0656121
8.02                 0.969183181     -32.1363683
8.022                 0.96898939     -32.2071331
8.024                 0.96879508     -32.2779066
8.026                0.968595722     -32.3486203
8.028                0.968395824     -32.4193413
8.03                 0.968195387     -32.4900696
8.032                 0.96799441     -32.5608053
8.034                0.967796459      -32.631556
8.036                0.967597976     -32.7023128
8.038                0.967398962     -32.7730758
8.04                 0.967199417      -32.843845
8.042                0.967009487     -32.9148968
8.044                0.966819057     -32.9859538
8.046                0.966628126      -33.057016
8.048                0.966436694     -33.1280837
8.05                 0.966259512     -33.1998452
8.052                 0.96608188     -33.2716116
8.054                0.965903794     -33.3433827
8.056                0.965725257     -33.4151587
8.058                0.965562868     -33.4880968
8.06                 0.965400083     -33.5610394
8.062                  0.9652369     -33.6339868
8.064                0.965073321     -33.7069389
8.066                0.964924649     -33.7815787
8.068                0.964775639     -33.8562238
8.07                 0.964626289      -33.930874
8.072                  0.9644766     -34.0055299
8.074                0.964337589     -34.0823208
8.076                0.964198285     -34.1591177
8.078                 0.96405869     -34.2359209
8.08                 0.963918802     -34.3127304
8.082                  0.9637825     -34.3920407
8.084                0.963645934     -34.4713586
8.086                0.963509104     -34.5506842
8.088                0.963372009     -34.6300175
8.09                 0.963229609     -34.7120385
8.092                0.963086941     -34.7940693
8.094                0.962944006     -34.8761094
8.096                  0.9628008     -34.9581595
8.098                0.962642905     -35.0428176
8.1                  0.962484698     -35.1274868
8.102                0.962326181      -35.212167
8.104                0.962167353     -35.2968586
8.106                0.961985689     -35.3838878
8.108                0.961803629     -35.4709292
8.11                 0.961621176     -35.5579829
8.112                0.961438328     -35.6450489
8.114                0.961227587     -35.7339789
8.116                0.961016332     -35.8229214
8.118                 0.96080457     -35.9118762
8.12                   0.9605923     -36.0008436
8.122                0.960351482      -36.091086
8.124                0.960110033     -36.1813394
8.126                0.959867954      -36.271604
8.128                0.959625246     -36.3618797
8.13                  0.95935795     -36.4529103
8.132                0.959089911     -36.5439496
8.134                0.958821132     -36.6349977
8.136                0.958551612     -36.7260549
8.138                0.958265611      -36.817466
8.14                 0.957978793     -36.9088829
8.142                0.957691159     -37.0003059
8.144                 0.95740271      -37.091735
8.146                0.957108056     -37.1834135
8.148                0.956812552     -37.2750951
8.15                   0.9565162     -37.3667801
8.152                0.956218999     -37.4584686
8.154                0.955925822     -37.5505915
8.156                0.955631809     -37.6427157
8.158                0.955336958     -37.7348411
8.16                  0.95504127     -37.8269681
8.162                0.954757762     -37.9199425
8.164                0.954473464     -38.0129171
8.166                0.954188374     -38.1058917
8.168                0.953902494     -38.1988667
8.17                 0.953632957     -38.2933192
8.172                  0.9533627     -38.3877716
8.174                0.953091719     -38.4822238
8.176                0.952820018     -38.5766764
8.178                0.952564642     -38.6732379
8.18                 0.952308616     -38.7697995
8.182                 0.95205194     -38.8663614
8.184                0.951794612     -38.9629236
8.186                0.951549395     -39.0622129
8.188                0.951303588     -39.1615033
8.19                 0.951057191     -39.2607947
8.192                0.950810205     -39.3600874
8.194                0.950568185     -39.4625708
8.196                0.950325613     -39.5650568
8.198                0.950082486     -39.6675452
8.2                  0.949838805     -39.7700362