! TOUCHSTONE file generated by CST DESIGN STUDIO
! Date and time: Mon Feb 10 16:55:49 2025
! Project name: C:\Work\MatlabApps\UnitCellType2OptimizationMatlab\CST\unitcell.cst
! Tree item: Tasks\Sweep1\SPara1\S-Parameters
! Header version: 2024
! Port assignment regex: !\s*Touchstone port\s*([0-9]+)\s*=\s*(CST MWS port|CST DES external port|CST DES block port)\s*(.+)\s* \(\"(.*)\"\)(\s*mode\s*([0-9]+))?.*
! Touchstone port assignment:
! Touchstone port 1 = CST DES external port 1 ("")
# GHz S MA R 50
7                    0.992391522     -12.9557036
7.002                0.992403678     -12.9721384
7.004                0.992415871     -12.9885745
7.006                0.992428101     -13.0050118
7.008                 0.99244037     -13.0214505
7.01                  0.99247126     -13.0388262
7.012                0.992502224     -13.0562026
7.014                0.992533264     -13.0735799
7.016                0.992564379     -13.0909582
7.018                0.992605848     -13.1096322
7.02                 0.992647425     -13.1283064
7.022                 0.99268911     -13.1469808
7.024                0.992730904     -13.1656553
7.026                0.992773328     -13.1857517
7.028                0.992815886     -13.2058482
7.03                 0.992858576     -13.2259445
7.032                0.992901398     -13.2460407
7.034                0.992935497      -13.267442
7.036                 0.99296973     -13.2888437
7.038                0.993004096     -13.3102456
7.04                 0.993038597     -13.3316479
7.042                0.993056959     -13.3540395
7.044                0.993075424     -13.3764323
7.046                0.993093991     -13.3988263
7.048                0.993112659     -13.4212215
7.05                 0.993110797     -13.4441589
7.052                0.993108977     -13.4670984
7.054                0.993107201     -13.4900399
7.056                0.993105468     -13.5129834
7.058                0.993082276      -13.535968
7.06                 0.993059054     -13.5589551
7.062                0.993035805     -13.5819446
7.064                0.993012527     -13.6049367
7.066                0.992970337     -13.6274857
7.068                0.992928052     -13.6500371
7.07                 0.992885674     -13.6725911
7.072                0.992843204     -13.6951475
7.074                0.992787355     -13.7168718
7.076                0.992731368     -13.7385982
7.078                0.992675244     -13.7603267
7.08                 0.992618981     -13.7820573
7.082                 0.99255716     -13.8027155
7.084                0.992495187     -13.8233752
7.086                0.992433063     -13.8440365
7.088                0.992370788     -13.8646993
7.09                 0.992311826     -13.8842454
7.092                 0.99225273     -13.9037928
7.094                0.992193502     -13.9233412
7.096                0.992134141     -13.9428909
7.098                0.992086582     -13.9614998
7.1                  0.992038932     -13.9801098
7.102                0.991991189     -13.9987209
7.104                0.991943353     -14.0173331
7.106                0.991913988     -14.0353707
7.108                0.991884579     -14.0534095
7.11                 0.991855125     -14.0714496
7.112                0.991825626      -14.089491
7.114                0.991817953      -14.107472
7.116                0.991810284     -14.1254543
7.118                0.991802617     -14.1434378
7.12                 0.991794955     -14.1614228
7.122                0.991808409     -14.1799048
7.124                0.991821912      -14.198388
7.126                0.991835464     -14.2168722
7.128                0.991849067     -14.2353575
7.13                 0.991878882     -14.2548376
7.132                0.991908787     -14.2743184
7.134                0.991938781     -14.2937999
7.136                0.991968866      -14.313282
7.138                 0.99200698      -14.334092
7.14                 0.992045215     -14.3549026
7.142                0.992083571     -14.3757136
7.144                0.992122046     -14.3965251
7.146                0.992158701     -14.4187576
7.148                0.992195487     -14.4409906
7.15                 0.992232403     -14.4632242
7.152                 0.99226945     -14.4854583
7.154                0.992295312     -14.5089486
7.156                0.992321288     -14.5324398
7.158                 0.99234738     -14.5559321
7.16                 0.992373584     -14.5794254
7.162                0.992381525     -14.6037944
7.164                0.992389536     -14.6281652
7.166                0.992397619     -14.6525378
7.168                0.992405773     -14.6769121
7.17                  0.99239228      -14.701655
7.172                 0.99237879     -14.7264005
7.174                0.992365307     -14.7511484
7.176                 0.99235183     -14.7758989
7.178                 0.99231747     -14.8004786
7.18                 0.992283045     -14.8250611
7.182                0.992248555     -14.8496464
7.184                0.992214001     -14.8742344
7.186                0.992163151     -14.8981897
7.188                 0.99211218     -14.9221474
7.19                  0.99206109     -14.9461075
7.192                 0.99200988       -14.97007
7.194                0.991949605     -14.9930999
7.196                0.991889186     -15.0161316
7.198                0.991828622     -15.0391651
7.2                  0.991767914     -15.0622002
7.202                0.991706662     -15.0841998
7.204                0.991645273     -15.1062005
7.206                0.991583746     -15.1282024
7.208                0.991522082     -15.1502056
7.21                    0.991468     -15.1712845
7.212                 0.99141381     -15.1923643
7.214                0.991359511     -15.2134452
7.216                0.991305104      -15.234527
7.218                0.991264856     -15.2549589
7.22                  0.99122454     -15.2753918
7.222                0.991184155     -15.2958258
7.224                0.991143702     -15.3162609
7.226                0.991121381     -15.3364492
7.228                0.991099035     -15.3566386
7.23                 0.991076663     -15.3768293
7.232                0.991054266     -15.3970213
7.234                0.991050941     -15.4174242
7.236                0.991047634     -15.4378283
7.238                0.991044345     -15.4582337
7.24                 0.991041074     -15.4786404
7.242                0.991054664     -15.4997025
7.244                0.991068311     -15.5207657
7.246                0.991082016       -15.54183
7.248                0.991095778     -15.5628953
7.25                 0.991121288     -15.5849865
7.252                 0.99114689     -15.6070786
7.254                0.991172584     -15.6291715
7.256                0.991198369     -15.6512652
7.258                0.991228653     -15.6746043
7.26                  0.99125905     -15.6979441
7.262                0.991289562     -15.7212847
7.264                0.991320188      -15.744626
7.266                0.991346967      -15.769255
7.268                0.991373863      -15.793885
7.27                 0.991400877      -15.818516
7.272                0.991428007      -15.843148
7.274                0.991443344     -15.8688964
7.276                0.991458775     -15.8946464
7.278                  0.9914743     -15.9203979
7.28                 0.991489918      -15.946151
7.282                0.991487677     -15.9726703
7.284                0.991485476      -15.999192
7.286                0.991483318     -16.0257159
7.288                0.991481202      -16.052242
7.29                 0.991458343     -16.0790514
7.292                0.991435458     -16.1058635
7.294                0.991412548     -16.1326783
7.296                0.991389611     -16.1594959
7.298                0.991347034      -16.186079
7.3                  0.991304366     -16.2126648
7.302                0.991261605     -16.2392533
7.304                0.991218753     -16.2658446
7.306                0.991161156     -16.2917544
7.308                0.991103422     -16.3176665
7.31                  0.99104555      -16.343581
7.312                 0.99098754     -16.3694977
7.314                 0.99092259      -16.394451
7.316                0.990857488     -16.4194061
7.318                0.990792233     -16.4443629
7.32                 0.990726826     -16.4693214
7.322                0.990663553     -16.4932577
7.324                0.990600145      -16.517195
7.326                  0.9905366     -16.5411335
7.328                0.990472918     -16.5650732
7.33                 0.990419831     -16.5881748
7.332                0.990366648     -16.6112771
7.334                0.990313367     -16.6343804
7.336                0.990259991     -16.6574845
7.338                0.990223299     -16.6801166
7.34                 0.990186559     -16.7027497
7.342                0.990149772     -16.7253836
7.344                0.990112938     -16.7480184
7.346                0.990095402     -16.7706609
7.348                0.990077866     -16.7933045
7.35                 0.990060328     -16.8159491
7.352                0.990042788     -16.8385947
7.354                 0.99004345     -16.8617355
7.356                0.990044152     -16.8848774
7.358                0.990044893     -16.9080204
7.36                 0.990045673     -16.9311645
7.362                0.990060297     -16.9552067
7.364                0.990074994     -16.9792501
7.366                0.990089762     -17.0032944
7.368                0.990104603     -17.0273398
7.37                 0.990126721     -17.0525424
7.372                0.990148936      -17.077746
7.374                0.990171245     -17.1029506
7.376                 0.99019365     -17.1281562
7.378                0.990215797     -17.1546087
7.38                 0.990238047     -17.1810623
7.382                0.990260402     -17.2075171
7.384                 0.99028286     -17.2339732
7.386                  0.9902978     -17.2615811
7.388                0.990312833     -17.2891906
7.39                 0.990327957     -17.3168017
7.392                0.990343173     -17.3444143
7.394                 0.99034489     -17.3729455
7.396                0.990346663     -17.4014789
7.398                0.990348493     -17.4300143
7.4                  0.990350381     -17.4585518
7.402                0.990334972     -17.4876462
7.404                0.990319568      -17.516743
7.406                0.990304169     -17.5458422
7.408                0.990288775     -17.5749439
7.41                 0.990254985     -17.6041848
7.412                 0.99022114     -17.6334283
7.414                 0.99018724     -17.6626744
7.416                0.990153284     -17.6919229
7.418                0.990102863     -17.7208893
7.42                 0.990052332      -17.749858
7.422                0.990001692      -17.778829
7.424                0.989950941     -17.8078022
7.426                 0.98988851     -17.8361378
7.428                0.989825934     -17.8644752
7.43                 0.989763213     -17.8928145
7.432                0.989700347     -17.9211556
7.434                0.989632837      -17.948648
7.436                0.989565174     -17.9761417
7.438                0.989497359     -18.0036367
7.44                 0.989429391     -18.0311332
7.442                0.989364935     -18.0577469
7.444                0.989300347     -18.0843617
7.446                0.989235625     -18.1109775
7.448                0.989170772     -18.1375943
7.45                 0.989117111     -18.1635126
7.452                0.989063357     -18.1894318
7.454                 0.98900951     -18.2153519
7.456                0.988955571     -18.2412728
7.458                0.988918514     -18.2668565
7.46                 0.988881415     -18.2924411
7.462                0.988844272     -18.3180264
7.464                0.988807086     -18.3436127
7.466                0.988789138     -18.3693501
7.468                  0.9887712     -18.3950884
7.47                 0.988753271     -18.4208274
7.472                 0.98873535     -18.4465673
7.474                0.988735132     -18.4729568
7.476                0.988734969     -18.4993472
7.478                 0.98873486     -18.5257382
7.48                 0.988734805     -18.5521301
7.482                0.988747338     -18.5795852
7.484                0.988759959      -18.607041
7.486                0.988772667     -18.6344976
7.488                0.988785464     -18.6619551
7.49                  0.98880322     -18.6907163
7.492                 0.98882108     -18.7194785
7.494                0.988839044     -18.7482417
7.496                0.988857111     -18.7770059
7.498                0.988871722     -18.8071028
7.5                  0.988886431     -18.8372011
7.502                0.988901239     -18.8673008
7.504                0.988916144     -18.8974018
7.506                 0.98892005     -18.9286534
7.508                0.988924024      -18.959907
7.51                 0.988928066     -18.9911626
7.512                0.988932178     -19.0224201
7.514                0.988920003     -19.0544877
7.516                0.988907845     -19.0865577
7.518                0.988895707     -19.1186303
7.52                 0.988883587     -19.1507054
7.522                0.988852971     -19.1831629
7.524                0.988822314     -19.2156231
7.526                0.988791614      -19.248086
7.528                0.988760872     -19.2805517
7.53                 0.988712715     -19.3129679
7.532                 0.98866446     -19.3453865
7.534                0.988616107     -19.3778076
7.536                0.988567653     -19.4102311
7.538                0.988505649     -19.4422425
7.54                 0.988443507     -19.4742556
7.542                0.988381227     -19.5062706
7.544                0.988318809     -19.5382874
7.546                0.988248748     -19.5696536
7.548                0.988178533     -19.6010208
7.55                 0.988108165     -19.6323891
7.552                0.988037644     -19.6637585
7.554                  0.9879664     -19.6943894
7.556                 0.98789501     -19.7250207
7.558                0.987823475     -19.7556525
7.56                 0.987751794     -19.7862849
7.562                0.987686311     -19.8162534
7.564                 0.98762071     -19.8462221
7.566                0.987554989     -19.8761912
7.568                0.987489149     -19.9061606
7.57                 0.987435344     -19.9356949
7.572                0.987381458     -19.9652295
7.574                0.987327491     -19.9947645
7.576                0.987273442     -20.0242999
7.578                0.987235328     -20.0537485
7.58                 0.987197178     -20.0831977
7.582                0.987158992     -20.1126473
7.584                0.987120769     -20.1420975
7.586                0.987099671     -20.1718871
7.588                0.987078582     -20.2016773
7.59                 0.987057503     -20.2314681
7.592                0.987036432     -20.2612596
7.594                0.987030606      -20.291817
7.596                0.987024832     -20.3223749
7.598                0.987019109     -20.3529335
7.6                  0.987013438     -20.3834927
7.602                0.987018157      -20.415178
7.604                0.987022961     -20.4468639
7.606                0.987027848     -20.4785504
7.608                0.987032821     -20.5102374
7.61                  0.98704107     -20.5432647
7.612                0.987049419     -20.5762926
7.614                0.987057867     -20.6093211
7.616                0.987066416     -20.6423504
7.618                0.987070138     -20.6767451
7.62                 0.987073949     -20.7111409
7.622                 0.98707785     -20.7455378
7.624                 0.98708184     -20.7799358
7.626                0.987073528     -20.8155103
7.628                0.987065266     -20.8510864
7.63                 0.987057054     -20.8866641
7.632                0.987048891     -20.9222436
7.634                0.987023132     -20.9586384
7.636                0.986997361     -20.9950353
7.638                0.986971578     -21.0314344
7.64                 0.986945781     -21.0678358
7.642                 0.98690045     -21.1045875
7.644                0.986855036     -21.1413416
7.646                 0.98680954      -21.178098
7.648                0.986763961     -21.2148569
7.65                  0.98670064     -21.2514924
7.652                0.986637175     -21.2881301
7.654                0.986573568     -21.3247698
7.656                0.986509818     -21.3614118
7.658                 0.98643347     -21.3975624
7.66                 0.986356941     -21.4337144
7.662                0.986280234     -21.4698678
7.664                0.986203349     -21.5060226
7.666                0.986121189     -21.5414732
7.668                0.986038848     -21.5769241
7.67                 0.985956326     -21.6123754
7.672                0.985873622     -21.6478271
7.674                0.985793571     -21.6825739
7.676                0.985713366     -21.7173202
7.678                0.985633007      -21.752066
7.68                 0.985552494     -21.7868112
7.682                0.985481642     -21.8210403
7.684                0.985410681     -21.8552683
7.686                0.985339611     -21.8894952
7.688                0.985268431      -21.923721
7.69                 0.985211698     -21.9577726
7.692                0.985154906     -21.9918231
7.694                0.985098056     -22.0258723
7.696                0.985041147     -22.0599204
7.698                0.985000668     -22.0942026
7.7                  0.984960177     -22.1284839
7.702                0.984919674     -22.1627642
7.704                0.984879157     -22.1970436
7.706                0.984854077     -22.2319749
7.708                0.984829022     -22.2669057
7.71                 0.984803993     -22.3018358
7.712                 0.98477899     -22.3367655
7.714                 0.98476587     -22.3727048
7.716                0.984752805     -22.4086439
7.718                0.984739794     -22.4445827
7.72                 0.984726838     -22.4805215
7.722                 0.98472022     -22.5177143
7.724                0.984713672     -22.5549072
7.726                0.984707196     -22.5921003
7.728                 0.98470079     -22.6292934
7.73                 0.984694122     -22.6678542
7.732                0.984687526     -22.7064155
7.734                0.984681003     -22.7449771
7.736                0.984674551     -22.7835391
7.738                0.984660959     -22.8234207
7.74                  0.98464742     -22.8633029
7.742                0.984633935     -22.9031857
7.744                0.984620503      -22.943069
7.746                0.984593965     -22.9840688
7.748                0.984567442     -23.0250692
7.75                 0.984540932     -23.0660703
7.752                0.984514436     -23.1070721
7.754                0.984470658     -23.1488588
7.756                0.984426836     -23.1906461
7.758                0.984382969      -23.232434
7.76                  0.98433906     -23.2742225
7.762                0.984276507     -23.3163821
7.764                0.984213842     -23.3585422
7.766                0.984151068     -23.4007026
7.768                0.984088183     -23.4428635
7.77                  0.98400846     -23.4849639
7.772                0.983928568     -23.5270642
7.774                0.983848506     -23.5691644
7.776                0.983768275     -23.6112647
7.778                 0.98367615     -23.6529447
7.78                  0.98358382     -23.6946241
7.782                0.983491283     -23.7363029
7.784                0.983398541     -23.7779811
7.786                 0.98330125     -23.8190359
7.788                0.983203749     -23.8600893
7.79                 0.983106039     -23.9011415
7.792                0.983008119     -23.9421923
7.794                 0.98291388     -23.9826178
7.796                0.982819461     -24.0230412
7.798                0.982724864     -24.0634624
7.8                  0.982630087     -24.1038815
7.802                0.982546425     -24.1438999
7.804                0.982462644      -24.183915
7.806                0.982378744      -24.223927
7.808                0.982294725     -24.2639358
7.81                  0.98222682     -24.3039386
7.812                0.982158874     -24.3439371
7.814                0.982090886     -24.3839312
7.816                0.982022856      -24.423921
7.818                0.981972495     -24.4643915
7.82                 0.981922173     -24.5048565
7.822                0.981871888      -24.545316
7.824                0.981821641       -24.58577
7.826                0.981786845     -24.6271891
7.828                0.981752153     -24.6686018
7.83                 0.981717564     -24.7100081
7.832                0.981683079     -24.7514081
7.834                0.981658686     -24.7941453
7.836                0.981634437     -24.8368756
7.838                0.981610331     -24.8795991
7.84                 0.981586369     -24.9223156
7.842                 0.98156531      -24.966579
7.844                0.981544406     -25.0108356
7.846                0.981523656     -25.0550852
7.848                0.981503059     -25.0993279
7.85                 0.981477702     -25.1451328
7.852                0.981452485     -25.1909309
7.854                0.981427407     -25.2367219
7.856                0.981402467     -25.2825059
7.858                0.981366025     -25.3296909
7.86                   0.9813297     -25.3768677
7.862                0.981293491     -25.4240365
7.864                0.981257395     -25.4711972
7.866                0.981204948     -25.5194638
7.868                0.981152623     -25.5677179
7.87                 0.981100418     -25.6159595
7.872                0.981048331     -25.6641884
7.874                0.980977285      -25.713183
7.876                0.980906492     -25.7621514
7.878                0.980835947     -25.8110928
7.88                  0.98076564     -25.8600068
7.882                  0.9806756     -25.9093992
7.884                0.980586518     -25.9587121
7.886                0.980498311     -26.0079413
7.888                0.980410889     -26.0570831
7.89                 0.980299673     -26.1070709
7.892                0.980195898     -26.1566057
7.894                0.980095907      -26.205589
7.896                0.979995841     -26.2540071
7.898                0.979867139     -26.3031888
7.9                  0.979748792     -26.3523952
7.902                 0.97964083     -26.4013408
7.904                0.979541207     -26.4497513
7.906                0.979421914     -26.4983854
7.908                 0.97930425     -26.5469463
7.91                 0.979188136     -26.5954251
7.912                 0.97907348     -26.6438132
7.914                0.978959885     -26.6920121
7.916                0.978846703     -26.7401762
7.918                0.978733922     -26.7883043
7.92                 0.978621531     -26.8363955
7.922                0.978518798     -26.8844225
7.924                0.978416224     -26.9324273
7.926                0.978313806     -26.9804097
7.928                0.978211542     -27.0283693
7.93                 0.978123999     -27.0766096
7.932                0.978036542      -27.124834
7.934                0.977949172     -27.1730423
7.936                0.977861887     -27.2212345
7.938                0.977791179     -27.2701648
7.94                 0.977720537     -27.3190833
7.942                 0.97764996     -27.3679901
7.944                0.977579449     -27.4168852
7.946                0.977523627     -27.4669819
7.948                0.977467865     -27.5170699
7.95                 0.977412162     -27.5671492
7.952                0.977356517     -27.6172198
7.954                0.977310269     -27.6688964
7.956                0.977264077     -27.7205663
7.958                 0.97721794     -27.7722294
7.96                 0.977171859     -27.8238859
7.962                0.977127466     -27.8773688
7.964                0.977083119     -27.9308458
7.966                0.977038816      -27.984317
7.968                0.976994558     -28.0377826
7.97                 0.976943331     -28.0930871
7.972                0.976892124     -28.1483858
7.974                0.976840935     -28.2036786
7.976                0.976789765     -28.2589658
7.978                0.976724045     -28.3158765
7.98                   0.9766583     -28.3727804
7.982                 0.97659253     -28.4296778
7.984                0.976526735     -28.4865685
7.986                0.976441218     -28.5447161
7.988                0.976355612     -28.6028558
7.99                  0.97626992     -28.6609873
7.992                0.976184142     -28.7191109
7.994                0.976077093     -28.7780288
7.996                0.975969888     -28.8369369
7.998                0.975862528     -28.8958353
8                    0.975755012     -28.9547239
8.002                0.975628293     -29.0139495
8.004                0.975501355     -29.0731636
8.006                0.975374198     -29.1323664
8.008                0.975246822     -29.1915581
8.01                  0.97510538     -29.2507509
8.012                0.974963671     -29.3099314
8.014                0.974821696     -29.3690994
8.016                0.974679456     -29.4282551
8.018                0.974530267     -29.4872152
8.02                 0.974380792     -29.5461623
8.022                0.974231031     -29.6050966
8.024                0.974080984     -29.6640181
8.026                0.973931447      -29.722756
8.028                0.973781631     -29.7814808
8.03                 0.973631535     -29.8401928
8.032                0.973481161     -29.8988919
8.034                0.973338175     -29.9575747
8.036                 0.97319494     -30.0162447
8.038                0.973051457     -30.0749019
8.04                 0.972907727     -30.1335464
8.042                0.972776244     -30.1924953
8.044                0.972644563     -30.2514313
8.046                0.972512681     -30.3103546
8.048                0.972380601     -30.3692652
8.05                 0.972263344     -30.4288992
8.052                0.972145949     -30.4885203
8.054                0.972028411     -30.5481286
8.056                0.971910733     -30.6077242
8.058                0.971807689     -30.6684743
8.06                 0.971704558     -30.7292112
8.062                 0.97160134     -30.7899349
8.064                0.971498035     -30.8506458
8.066                0.971406395     -30.9129442
8.068                0.971314711     -30.9752292
8.07                 0.971222982     -31.0375009
8.072                0.971131209     -31.0997597
8.074                0.971045748     -31.1639259
8.076                0.970960261     -31.2280784
8.078                0.970874748     -31.2922174
8.08                 0.970789208      -31.356343
8.082                0.970702742     -31.4225829
8.084                0.970616237     -31.4888091
8.086                0.970529695     -31.5550216
8.088                0.970443115     -31.6212205
8.09                  0.97034768     -31.6895604
8.092                0.970252162     -31.7578867
8.094                0.970156562     -31.8261992
8.096                0.970060878     -31.8944982
8.098                0.969948972     -31.9647339
8.1                  0.969836913     -32.0349551
8.102                  0.9697247     -32.1051619
8.104                0.969612334     -32.1753544
8.106                0.969478398     -32.2471396
8.108                0.969344219     -32.3189089
8.11                   0.9692098     -32.3906623
8.112                0.969075141     -32.4624001
8.114                0.968916875     -32.5352618
8.116                0.968758278     -32.6081054
8.118                0.968599358     -32.6809307
8.12                 0.968440112     -32.7537379
8.122                0.968259198     -32.8271683
8.124                0.968077897     -32.9005771
8.126                0.967896212     -32.9739644
8.128                0.967714141     -33.0473303
8.13                 0.967515966      -33.120941
8.132                0.967317375     -33.1945266
8.134                0.967118371     -33.2680874
8.136                0.966918955     -33.3416236
8.138                0.966711736     -33.4151798
8.14                 0.966504112     -33.4887082
8.142                0.966296085      -33.562209
8.144                0.966087654     -33.6356823
8.146                0.965880502     -33.7092246
8.148                0.965672981     -33.7827374
8.15                 0.965465093     -33.8562207
8.152                0.965256838     -33.9296749
8.154                0.965057813     -34.0034832
8.156                0.964858473     -34.0772614
8.158                0.964658817     -34.1510097
8.16                 0.964458846     -34.2247284
8.162                0.964273405     -34.2992438
8.164                0.964087702     -34.3737297
8.166                0.963901736      -34.448186
8.168                0.963715508      -34.522613
8.17                 0.963545255     -34.5984059
8.172                0.963374789       -34.67417
8.174                0.963204108     -34.7499052
8.176                0.963033214     -34.8256122
8.178                  0.9628761     -34.9031981
8.18                 0.962718807     -34.9807554
8.182                0.962561336     -35.0582844
8.184                0.962403685     -35.1357851
8.186                0.962254383     -35.2156128
8.188                0.962104922     -35.2954116
8.19                 0.961955302     -35.3751816
8.192                0.961805524      -35.454923
8.194                0.961656761     -35.5372688
8.196                0.961507838     -35.6195848
8.198                0.961358755     -35.7018708
8.2                  0.961209512     -35.7841273