! TOUCHSTONE file generated by CST DESIGN STUDIO
! Date and time: Mon Feb 10 16:55:44 2025
! Project name: C:\Work\MatlabApps\UnitCellType2OptimizationMatlab\CST\unitcell.cst
! Tree item: Tasks\Sweep1\SPara1\S-Parameters
! Header version: 2024
! Port assignment regex: !\s*Touchstone port\s*([0-9]+)\s*=\s*(CST MWS port|CST DES external port|CST DES block port)\s*(.+)\s* \(\"(.*)\"\)(\s*mode\s*([0-9]+))?.*
! Touchstone port assignment:
! Touchstone port 1 = CST DES external port 1 ("")
# GHz S MA R 50
7                    0.992877456     -14.9210576
7.002                0.992866436     -14.9433074
7.004                0.992855344     -14.9655961
7.006                0.992844181     -14.9879237
7.008                0.992832946     -15.0102905
7.01                 0.992821638     -15.0326966
7.012                0.992810258      -15.055142
7.014                0.992798805      -15.077627
7.016                0.992787279     -15.1001516
7.018                0.992775679     -15.1227161
7.02                 0.992764006     -15.1453205
7.022                0.992752258     -15.1679649
7.024                0.992740437     -15.1906496
7.026                 0.99272854     -15.2133746
7.028                0.992716568     -15.2361401
7.03                 0.992704521     -15.2589462
7.032                0.992692398     -15.2817931
7.034                  0.9926802     -15.3046809
7.036                0.992667925     -15.3276097
7.038                0.992655573     -15.3505797
7.04                 0.992643144     -15.3735911
7.042                0.992630638     -15.3966439
7.044                0.992618054     -15.4197383
7.046                0.992605393     -15.4428745
7.048                0.992592653     -15.4660526
7.05                 0.992579834     -15.4892728
7.052                0.992566936     -15.5125351
7.054                0.992553959     -15.5358398
7.056                0.992540902     -15.5591869
7.058                0.992527765     -15.5825767
7.06                 0.992514548     -15.6060093
7.062                 0.99250125     -15.6294849
7.064                0.992487871     -15.6530035
7.066                0.992474411     -15.6765653
7.068                0.992460868     -15.7001706
7.07                 0.992447244     -15.7238194
7.072                0.992433536     -15.7475118
7.074                0.992419746     -15.7712482
7.076                0.992405873     -15.7950285
7.078                0.992391916      -15.818853
7.08                 0.992377875     -15.8427218
7.082                0.992363749     -15.8666351
7.084                0.992349539      -15.890593
7.086                0.992335244     -15.9145957
7.088                0.992320863     -15.9386434
7.09                 0.992306396     -15.9627362
7.092                0.992291842     -15.9868742
7.094                0.992277202     -16.0110577
7.096                0.992262475     -16.0352868
7.098                 0.99224766     -16.0595616
7.1                  0.992232758     -16.0838824
7.102                0.992217767     -16.1082492
7.104                0.992202687     -16.1326623
7.106                0.992187518     -16.1571218
7.108                 0.99217226     -16.1816279
7.11                 0.992156911     -16.2061808
7.112                0.992141473     -16.2307806
7.114                0.992125943     -16.2554275
7.116                0.992110322     -16.2801216
7.118                 0.99209461     -16.3048632
7.12                 0.992078806     -16.3296524
7.122                0.992062909     -16.3544894
7.124                0.992046919     -16.3793743
7.126                0.992030836     -16.4043074
7.128                0.992014659     -16.4292888
7.13                 0.991998387     -16.4543186
7.132                0.991982021     -16.4793972
7.134                 0.99196556     -16.5045246
7.136                0.991949003      -16.529701
7.138                0.991932351     -16.5549266
7.14                 0.991915601     -16.5802015
7.142                0.991898755     -16.6055261
7.144                0.991881812     -16.6309004
7.146                 0.99186477     -16.6563246
7.148                 0.99184763      -16.681799
7.15                 0.991830391     -16.7073236
7.152                0.991813053     -16.7328988
7.154                0.991795616     -16.7585246
7.156                0.991778077     -16.7842013
7.158                0.991760439     -16.8099291
7.16                 0.991742699     -16.8357081
7.162                0.991724857     -16.8615385
7.164                0.991706913     -16.8874206
7.166                0.991688866     -16.9133545
7.168                0.991670716     -16.9393404
7.17                 0.991652462     -16.9653786
7.172                0.991634104     -16.9914691
7.174                0.991615642     -17.0176123
7.176                0.991597074     -17.0438083
7.178                  0.9915784     -17.0700573
7.18                  0.99155962     -17.0963595
7.182                0.991540733     -17.1227151
7.184                0.991521739     -17.1491243
7.186                0.991502637     -17.1755874
7.188                0.991483426     -17.2021045
7.19                 0.991464106     -17.2286758
7.192                0.991444677     -17.2553015
7.194                0.991425138     -17.2819819
7.196                0.991405488     -17.3087172
7.198                0.991385727     -17.3355075
7.2                  0.991365855     -17.3623531
7.202                 0.99134587     -17.3892542
7.204                0.991325772      -17.416211
7.206                 0.99130556     -17.4432237
7.208                0.991285235     -17.4702926
7.21                 0.991264795     -17.4974178
7.212                 0.99124424     -17.5245996
7.214                0.991223569     -17.5518381
7.216                0.991202782     -17.5791337
7.218                0.991181877     -17.6064865
7.22                 0.991160856     -17.6338968
7.222                0.991139716     -17.6613647
7.224                0.991118457     -17.6888906
7.226                0.991097079     -17.7164746
7.228                 0.99107558      -17.744117
7.23                 0.991053962     -17.7718179
7.232                0.991032221     -17.7995777
7.234                0.991010359     -17.8273965
7.236                0.990988375     -17.8552746
7.238                0.990966267     -17.8832122
7.24                 0.990944036     -17.9112096
7.242                 0.99092168     -17.9392669
7.244                0.990899199     -17.9673845
7.246                0.990876592     -17.9955626
7.248                0.990853858     -18.0238014
7.25                 0.990830998     -18.0521011
7.252                 0.99080801      -18.080462
7.254                0.990784893     -18.1088844
7.256                0.990761647     -18.1373684
7.258                0.990738272     -18.1659144
7.26                 0.990714766     -18.1945225
7.262                0.990691128     -18.2231931
7.264                0.990667359     -18.2519263
7.266                0.990643457     -18.2807225
7.268                0.990619422     -18.3095819
7.27                 0.990595252     -18.3385047
7.272                0.990570948     -18.3674912
7.274                0.990546508     -18.3965417
7.276                0.990521932     -18.4256563
7.278                 0.99049722     -18.4548355
7.28                 0.990472369     -18.4840794
7.282                 0.99044738     -18.5133883
7.284                0.990422251     -18.5427625
7.286                0.990396983     -18.5722022
7.288                0.990371574     -18.6017077
7.29                 0.990346023     -18.6312793
7.292                 0.99032033     -18.6609172
7.294                0.990294494     -18.6906218
7.296                0.990268514     -18.7203932
7.298                0.990242389     -18.7502318
7.3                  0.990216119     -18.7801379
7.302                0.990189702     -18.8101117
7.304                0.990163139     -18.8401535
7.306                0.990136427     -18.8702635
7.308                0.990109567     -18.9004422
7.31                 0.990082557     -18.9306897
7.312                0.990055396     -18.9610064
7.314                0.990028085     -18.9913924
7.316                0.990000621     -19.0218483
7.318                0.989973004     -19.0523741
7.32                 0.989945233     -19.0829702
7.322                0.989917308      -19.113637
7.324                0.989889227     -19.1443746
7.326                0.989860989     -19.1751835
7.328                0.989832595     -19.2060638
7.33                 0.989804041      -19.237016
7.332                0.989775329     -19.2680402
7.334                0.989746457     -19.2991369
7.336                0.989717423     -19.3303063
7.338                0.989688228     -19.3615487
7.34                  0.98965887     -19.3928645
7.342                0.989629348     -19.4242539
7.344                0.989599661     -19.4557173
7.346                0.989569809      -19.487255
7.348                 0.98953979     -19.5188673
7.35                 0.989509603     -19.5505545
7.352                0.989479248      -19.582317
7.354                0.989448723      -19.614155
7.356                0.989418027     -19.6460689
7.358                 0.98938716     -19.6780591
7.36                 0.989356121     -19.7101258
7.362                0.989324907     -19.7422694
7.364                0.989293519     -19.7744902
7.366                0.989261956     -19.8067885
7.368                0.989230216     -19.8391648
7.37                 0.989198298     -19.8716193
7.372                0.989166201     -19.9041524
7.374                0.989133925     -19.9367643
7.376                0.989101467     -19.9694556
7.378                0.989068828     -20.0022264
7.38                 0.989036006     -20.0350773
7.382                0.989002999     -20.0680084
7.384                0.988969807     -20.1010202
7.386                0.988936429      -20.134113
7.388                0.988902863     -20.1672872
7.39                 0.988869108     -20.2005432
7.392                0.988835164     -20.2338812
7.394                0.988801029     -20.2673018
7.396                0.988766702     -20.3008051
7.398                0.988732181     -20.3343917
7.4                  0.988697467     -20.3680618
7.402                0.988662556     -20.4018159
7.404                0.988627449     -20.4356544
7.406                0.988592143     -20.4695775
7.408                0.988556639     -20.5035857
7.41                 0.988520934     -20.5376794
7.412                0.988485027      -20.571859
7.414                0.988448918     -20.6061247
7.416                0.988412604     -20.6404772
7.418                0.988376085     -20.6749166
7.42                 0.988339359     -20.7094435
7.422                0.988302425     -20.7440582
7.424                0.988265282     -20.7787611
7.426                0.988227928     -20.8135526
7.428                0.988190363     -20.8484331
7.43                 0.988152584     -20.8834031
7.432                 0.98811459      -20.918463
7.434                0.988076381      -20.953613
7.436                0.988037955     -20.9888538
7.438                0.987999309     -21.0241856
7.44                 0.987960444      -21.059609
7.442                0.987921358     -21.0951242
7.444                0.987882048     -21.1307319
7.446                0.987842514     -21.1664323
7.448                0.987802755     -21.2022259
7.45                 0.987762769     -21.2381132
7.452                0.987722554     -21.2740945
7.454                0.987682109     -21.3101704
7.456                0.987641433     -21.3463412
7.458                0.987600523     -21.3826075
7.46                 0.987559379     -21.4189696
7.462                   0.987518      -21.455428
7.464                0.987476383     -21.4919832
7.466                0.987434526     -21.5286356
7.468                0.987392429     -21.5653857
7.47                 0.987350091     -21.6022339
7.472                0.987307508     -21.6391807
7.474                 0.98726468     -21.6762266
7.476                0.987221605      -21.713372
7.478                0.987178282     -21.7506175
7.48                 0.987134708     -21.7879634
7.482                0.987090883     -21.8254103
7.484                0.987046805     -21.8629587
7.486                0.987002471      -21.900609
7.488                 0.98695788     -21.9383617
7.49                 0.986913031     -21.9762174
7.492                0.986867922     -22.0141764
7.494                0.986822551     -22.0522394
7.496                0.986776916     -22.0904069
7.498                0.986731016     -22.1286792
7.5                  0.986684849      -22.167057
7.502                0.986638413     -22.2055407
7.504                0.986591706     -22.2441309
7.506                0.986544726     -22.2828281
7.508                0.986497472     -22.3216328
7.51                 0.986449942     -22.3605455
7.512                0.986402133     -22.3995668
7.514                0.986354045     -22.4386972
7.516                0.986305675     -22.4779372
7.518                 0.98625702     -22.5172874
7.52                 0.986208081     -22.5567483
7.522                0.986158853     -22.5963204
7.524                0.986109336     -22.6360044
7.526                0.986059527     -22.6758008
7.528                0.986009425       -22.71571
7.53                 0.985959027     -22.7557328
7.532                0.985908331     -22.7958696
7.534                0.985857336     -22.8361211
7.536                0.985806038     -22.8764877
7.538                0.985754437     -22.9169701
7.54                  0.98570253     -22.9575689
7.542                0.985650315     -22.9982846
7.544                 0.98559779     -23.0391179
7.546                0.985544952     -23.0800693
7.548                  0.9854918     -23.1211394
7.55                 0.985438331     -23.1623288
7.552                0.985384542     -23.2036382
7.554                0.985330433     -23.2450681
7.556                   0.985276     -23.2866192
7.558                0.985221242     -23.3282921
7.56                 0.985166155     -23.3700873
7.562                0.985110738     -23.4120056
7.564                0.985054989     -23.4540475
7.566                0.984998904     -23.4962137
7.568                0.984942482     -23.5385049
7.57                  0.98488572     -23.5809216
7.572                0.984828616     -23.6234646
7.574                0.984771167     -23.6661344
7.576                 0.98471337     -23.7089318
7.578                0.984655225     -23.7518574
7.58                 0.984596726     -23.7949118
7.582                0.984537874     -23.8380958
7.584                0.984478664       -23.88141
7.586                0.984419094     -23.9248551
7.588                0.984359161     -23.9684318
7.59                 0.984298864     -24.0121408
7.592                0.984238199     -24.0559827
7.594                0.984177163     -24.0999583
7.596                0.984115754     -24.1440683
7.598                 0.98405397     -24.1883134
7.6                  0.983991807     -24.2326943
7.602                0.983929262     -24.2772117
7.604                0.983866333     -24.3218664
7.606                0.983803018     -24.3666591
7.608                0.983739312     -24.4115905
7.61                 0.983675214     -24.4566613
7.612                 0.98361072     -24.5018724
7.614                0.983545827     -24.5472244
7.616                0.983480533     -24.5927182
7.618                0.983414834     -24.6383545
7.62                 0.983348728      -24.684134
7.622                0.983282211     -24.7300576
7.624                0.983215281      -24.776126
7.626                0.983147933     -24.8223399
7.628                0.983080166     -24.8687003
7.63                 0.983011976     -24.9152079
7.632                 0.98294336     -24.9618635
7.634                0.982874314     -25.0086679
7.636                0.982804835     -25.0556219
7.638                 0.98273492     -25.1027264
7.64                 0.982664566     -25.1499821
7.642                 0.98259377       -25.19739
7.644                0.982522527     -25.2449508
7.646                0.982450835     -25.2926654
7.648                 0.98237869     -25.3405346
7.65                 0.982306088     -25.3885594
7.652                0.982233027     -25.4367406
7.654                0.982159502      -25.485079
7.656                 0.98208551     -25.5335755
7.658                0.982011048      -25.582231
7.66                 0.981936111     -25.6310465
7.662                0.981860697     -25.6800227
7.664                  0.9817848     -25.7291607
7.666                0.981708419     -25.7784612
7.668                0.981631548     -25.8279254
7.67                 0.981554184      -25.877554
7.672                0.981476323      -25.927348
7.674                0.981397962     -25.9773083
7.676                0.981319096     -26.0274359
7.678                0.981239721     -26.0777318
7.68                 0.981159833     -26.1281969
7.682                0.981079429     -26.1788322
7.684                0.980998503     -26.2296386
7.686                0.980917053     -26.2806172
7.688                0.980835074     -26.3317689
7.69                 0.980752561     -26.3830948
7.692                 0.98066951     -26.4345958
7.694                0.980585918     -26.4862729
7.696                0.980501779     -26.5381273
7.698                 0.98041709     -26.5901598
7.7                  0.980331845     -26.6423716
7.702                0.980246041     -26.6947637
7.704                0.980159673     -26.7473372
7.706                0.980072736     -26.8000931
7.708                0.979985226     -26.8530325
7.71                 0.979897137     -26.9061565
7.712                0.979808467     -26.9594661
7.714                0.979719208     -27.0129626
7.716                0.979629358     -27.0666468
7.718                 0.97953891     -27.1205201
7.72                 0.979447861     -27.1745835
7.722                0.979356205     -27.2288382
7.724                0.979263936     -27.2832852
7.726                0.979171051     -27.3379258
7.728                0.979077544     -27.3927611
7.73                 0.978983409     -27.4477923
7.732                0.978888642     -27.5030206
7.734                0.978793238     -27.5584471
7.736                 0.97869719      -27.614073
7.738                0.978600495     -27.6698996
7.74                 0.978503145     -27.7259281
7.742                0.978405136     -27.7821597
7.744                0.978306462     -27.8385956
7.746                0.978207118     -27.8952372
7.748                0.978107098     -27.9520855
7.75                 0.978006396     -28.0091421
7.752                0.977905007      -28.066408
7.754                0.977802924     -28.1238846
7.756                0.977700142     -28.1815732
7.758                0.977596655     -28.2394751
7.76                 0.977492457     -28.2975917
7.762                0.977387541     -28.3559242
7.764                0.977281902      -28.414474
7.766                0.977175533     -28.4732425
7.768                0.977068429     -28.5322311
7.77                 0.976960582      -28.591441
7.772                0.976851986     -28.6508738
7.774                0.976742636     -28.7105307
7.776                0.976632523     -28.7704133
7.778                0.976521643      -28.830523
7.78                 0.976409987     -28.8908611
7.782                 0.97629755     -28.9514292
7.784                0.976184324     -29.0122286
7.786                0.976070303     -29.0732609
7.788                0.975955479     -29.1345276
7.79                 0.975839846     -29.1960302
7.792                0.975723397     -29.2577701
7.794                0.975606123      -29.319749
7.796                0.975488018     -29.3819682
7.798                0.975369075     -29.4444295
7.8                  0.975249286     -29.5071343
7.802                0.975128644     -29.5700843
7.804                0.975007141      -29.633281
7.806                0.974884769      -29.696726
7.808                 0.97476152      -29.760421
7.81                 0.974637387     -29.8243676
7.812                0.974512362     -29.8885675
7.814                0.974386437     -29.9530222
7.816                0.974259603     -30.0177335
7.818                0.974131853     -30.0827031
7.82                 0.974003178     -30.1479327
7.822                0.973873569      -30.213424
7.824                0.973743019     -30.2791787
7.826                0.973611518     -30.3451987
7.828                0.973479058     -30.4114856
7.83                 0.973345631     -30.4780412
7.832                0.973211226     -30.5448674
7.834                0.973075837      -30.611966
7.836                0.972939452     -30.6793388
7.838                0.972802064     -30.7469876
7.84                 0.972663662     -30.8149144
7.842                0.972524238     -30.8831209
7.844                0.972383782     -30.9516092
7.846                0.972242284      -31.020381
7.848                0.972099735     -31.0894384
7.85                 0.971956125     -31.1587834
7.852                0.971811444     -31.2284177
7.854                0.971665682     -31.2983436
7.856                0.971518829     -31.3685629
7.858                0.971370874     -31.4390777
7.86                 0.971221807       -31.50989
7.862                0.971071618     -31.5810019
7.864                0.970920296     -31.6524155
7.866                0.970767831     -31.7241329
7.868                 0.97061421     -31.7961561
7.87                 0.970459425     -31.8684874
7.872                0.970303462     -31.9411289
7.874                0.970146312     -32.0140827
7.876                0.969987962     -32.0873511
7.878                0.969828401     -32.1609362
7.88                 0.969667618     -32.2348404
7.882                0.969505601     -32.3090659
7.884                0.969342337     -32.3836149
7.886                0.969177816     -32.4584898
7.888                0.969012023     -32.5336929
7.89                 0.968844948     -32.6092265
7.892                0.968676578      -32.685093
7.894                  0.9685069     -32.7612948
7.896                0.968335901     -32.8378344
7.898                0.968163568      -32.914714
7.9                  0.967989889     -32.9919363
7.902                0.967814849     -33.0695037
7.904                0.967638436     -33.1474187
7.906                0.967460637     -33.2256839
7.908                0.967281436     -33.3043017
7.91                 0.967100821     -33.3832748
7.912                0.966918777     -33.4626058
7.914                 0.96673529     -33.5422973
7.916                0.966550346      -33.622352
7.918                 0.96636393     -33.7027725
7.92                 0.966176028     -33.7835616
7.922                0.965986624      -33.864722
7.924                0.965795703     -33.9462565
7.926                 0.96560325     -34.0281678
7.928                 0.96540925     -34.1104588
7.93                 0.965213686     -34.1931323
7.932                0.965016544     -34.2761912
7.934                0.964817806     -34.3596383
7.936                0.964617458     -34.4434768
7.938                0.964415481     -34.5277094
7.94                  0.96421186     -34.6123391
7.942                0.964006578     -34.6973691
7.944                0.963799617     -34.7828023
7.946                0.963590961     -34.8686418
7.948                0.963380592     -34.9548908
7.95                 0.963168491     -35.0415523
7.952                0.962954642     -35.1286296
7.954                0.962739026     -35.2161258
7.956                0.962521625     -35.3040443
7.958                 0.96230242     -35.3923882
7.96                 0.962081392     -35.4811609
7.962                0.961858522     -35.5703657
7.964                 0.96163379      -35.660006
7.966                0.961407178     -35.7500852
7.968                0.961178666     -35.8406067
7.97                 0.960948233     -35.9315741
7.972                0.960715859     -36.0229908
7.974                0.960481523     -36.1148603
7.976                0.960245205     -36.2071864
7.978                0.960006883     -36.2999725
7.98                 0.959766537     -36.3932225
7.982                0.959524144     -36.4869398
7.984                0.959279682     -36.5811284
7.986                 0.95903313      -36.675792
7.988                0.958784465     -36.7709344
7.99                 0.958533664     -36.8665595
7.992                0.958280703     -36.9626711
7.994                0.958025561     -37.0592732
7.996                0.957768212     -37.1563698
7.998                0.957508634      -37.253965
8                    0.957246801     -37.3520627
8.002                0.956982689     -37.4506671
8.004                0.956716273     -37.5497824
8.006                0.956447528     -37.6494128
8.008                0.956176429     -37.7495625
8.01                 0.955902948     -37.8502357
8.012                0.955627061      -37.951437
8.014                0.955348741     -38.0531705
8.016                 0.95506796     -38.1554408
8.018                0.954784691     -38.2582524
8.02                 0.954498907     -38.3616097
8.022                0.954210579     -38.4655174
8.024                 0.95391968       -38.56998
8.026                 0.95362618     -38.6750024
8.028                 0.95333005     -38.7805891
8.03                  0.95303126      -38.886745
8.032                0.952729782      -38.993475
8.034                0.952425584     -39.1007838
8.036                0.952118635     -39.2086766
8.038                0.951808904     -39.3171582
8.04                 0.951496361     -39.4262337
8.042                0.951180972     -39.5359083
8.044                0.950862706     -39.6461871
8.046                0.950541529     -39.7570753
8.048                0.950217408     -39.8685783
8.05                  0.94989031     -39.9807014
8.052                0.949560199     -40.0934499
8.054                0.949227043     -40.2068294
8.056                0.948890804     -40.3208454
8.058                0.948551448     -40.4355035
8.06                 0.948208939     -40.5508094
8.062                0.947863239     -40.6667687
8.064                0.947514312     -40.7833873
8.066                0.947162121      -40.900671
8.068                0.946806626     -41.0186258
8.07                 0.946447789     -41.1372576
8.072                0.946085571     -41.2565726
8.074                0.945719933     -41.3765768
8.076                0.945350834     -41.4972764
8.078                0.944978233     -41.6186777
8.08                 0.944602088     -41.7407872
8.082                0.944222358     -41.8636111
8.084                0.943839001     -41.9871561
8.086                0.943451972     -42.1114286
8.088                0.943061228     -42.2364354
8.09                 0.942666725     -42.3621831
8.092                0.942268418     -42.4886786
8.094                0.941866261     -42.6159289
8.096                0.941460208     -42.7439407
8.098                0.941050212     -42.8727214
8.1                  0.940636225     -43.0022778
8.102                  0.9402182     -43.1326174
8.104                0.939796086     -43.2637474
8.106                0.939369835     -43.3956752
8.108                0.938939396     -43.5284084
8.11                 0.938504719     -43.6619545
8.112                0.938065751     -43.7963211
8.114                0.937622439     -43.9315162
8.116                0.937174732     -44.0675474
8.118                0.936722574     -44.2044229
8.12                 0.936265912     -44.3421506
8.122                0.935804688     -44.4807388
8.124                0.935338848     -44.6201957
8.126                0.934868334     -44.7605296
8.128                0.934393088      -44.901749
8.13                 0.933913051     -45.0438625
8.132                0.933428164     -45.1868788
8.134                0.932938367     -45.3308067
8.136                0.932443597      -45.475655
8.138                0.931943793     -45.6214329
8.14                 0.931438891     -45.7681493
8.142                0.930928828     -45.9158135
8.144                0.930413538      -46.064435
8.146                0.929892957     -46.2140231
8.148                0.929367016     -46.3645874
8.15                 0.928835648     -46.5161378
8.152                0.928298785      -46.668684
8.154                0.927756357     -46.8222359
8.156                0.927208292     -46.9768037
8.158                 0.92665452     -47.1323977
8.16                 0.926094967      -47.289028
8.162                0.925529559     -47.4467054
8.164                0.924958222     -47.6054403
8.166                0.924380879     -47.7652435
8.168                0.923797454      -47.926126
8.17                 0.923207867     -48.0880987
8.172                 0.92261204     -48.2511729
8.174                0.922009893     -48.4153599
8.176                0.921401342     -48.5806712
8.178                0.920786307     -48.7471184
8.18                 0.920164701     -48.9147133
8.182                0.919536441     -49.0834679
8.184                0.918901439     -49.2533942
8.186                0.918259608     -49.4245045
8.188                0.917610858     -49.5968113
8.19                 0.916955099     -49.7703271
8.192                 0.91629224     -49.9450647
8.194                0.915622187     -50.1210371
8.196                0.914944846     -50.2982573
8.198                0.914260121     -50.4767386
8.2                  0.913567915     -50.6564944