! TOUCHSTONE file generated by CST DESIGN STUDIO
! Date and time: Mon Feb 10 16:45:20 2025
! Project name: C:\Work\MatlabApps\UnitCellType2OptimizationMatlab\CST\unitcell.cst
! Tree item: Tasks\Sweep1\SPara1\S-Parameters
! Header version: 2024
! Port assignment regex: !\s*Touchstone port\s*([0-9]+)\s*=\s*(CST MWS port|CST DES external port|CST DES block port)\s*(.+)\s* \(\"(.*)\"\)(\s*mode\s*([0-9]+))?.*
! Touchstone port assignment:
! Touchstone port 1 = CST DES external port 1 ("")
# GHz S MA R 50
7                    0.995676281     -13.6511839
7.002                0.995656411     -13.6693997
7.004                  0.9956365     -13.6876159
7.006                0.995616547     -13.7058324
7.008                0.995596554     -13.7240493
7.01                 0.995578821      -13.742269
7.012                0.995561051     -13.7604891
7.014                0.995543246     -13.7787094
7.016                0.995525404     -13.7969302
7.018                0.995510006     -13.8151707
7.02                 0.995494577     -13.8334116
7.022                0.995479117     -13.8516529
7.024                0.995463627     -13.8698944
7.026                0.995450677     -13.8881753
7.028                0.995437701     -13.9064565
7.03                 0.995424701      -13.924738
7.032                0.995411676     -13.9430198
7.034                0.995401276     -13.9613608
7.036                0.995390857      -13.979702
7.038                0.995380419     -13.9980436
7.04                 0.995369961     -14.0163854
7.042                0.995362164     -14.0348064
7.044                0.995354354     -14.0532277
7.046                0.995346531     -14.0716493
7.048                0.995338694     -14.0900711
7.05                 0.995333528     -14.1085912
7.052                0.995328354     -14.1271115
7.054                0.995323173      -14.145632
7.056                0.995317984     -14.1641528
7.058                0.995315412     -14.1827926
7.06                 0.995312839     -14.2014325
7.062                0.995310264     -14.2200727
7.064                0.995307688     -14.2387131
7.066                0.995307659     -14.2574944
7.068                0.995307634     -14.2762759
7.07                 0.995307614     -14.2950576
7.072                0.995307599     -14.3138394
7.074                0.995310007     -14.3327796
7.076                0.995312426     -14.3517199
7.078                0.995314856     -14.3706604
7.08                 0.995317296     -14.3896009
7.082                 0.99532199     -14.4087192
7.084                0.995326701     -14.4278376
7.086                0.995331428      -14.446956
7.088                0.995336172     -14.4660745
7.09                 0.995342994     -14.4853857
7.092                0.995349838     -14.5046969
7.094                0.995356704     -14.5240082
7.096                0.995363592     -14.5433194
7.098                0.995372321      -14.562846
7.1                  0.995381078     -14.5823725
7.102                0.995389861      -14.601899
7.104                0.995398672     -14.6214255
7.106                0.995409064      -14.641174
7.108                0.995419489     -14.6609224
7.11                 0.995429945     -14.6806709
7.112                0.995440432     -14.7004192
7.114                0.995452227     -14.7204081
7.116                0.995464058      -14.740397
7.118                0.995475925     -14.7603858
7.12                 0.995487828     -14.7803745
7.122                0.995500741     -14.8006069
7.124                0.995513695     -14.8208393
7.126                0.995526688     -14.8410715
7.128                0.995539721     -14.8613037
7.13                 0.995553447     -14.8817929
7.132                0.995567215     -14.9022821
7.134                0.995581028      -14.922771
7.136                0.995594883     -14.9432599
7.138                0.995609117     -14.9640105
7.14                 0.995623397     -14.9847609
7.142                0.995637722     -15.0055112
7.144                0.995652094     -15.0262613
7.146                0.995666528     -15.0472751
7.148                 0.99568101     -15.0682888
7.15                 0.995695539     -15.0893022
7.152                0.995710116     -15.1103156
7.154                 0.99572445     -15.1315935
7.156                0.995738833     -15.1528712
7.158                0.995753265     -15.1741488
7.16                 0.995767745     -15.1954263
7.162                0.995781674     -15.2169674
7.164                0.995795652     -15.2385085
7.166                0.995809679     -15.2600494
7.168                0.995823755     -15.2815901
7.17                 0.995836995     -15.3033955
7.172                0.995850283     -15.3252008
7.174                 0.99586362     -15.3470061
7.176                0.995877006     -15.3688112
7.178                0.995889296     -15.3908715
7.18                 0.995901634     -15.4129319
7.182                 0.99591402     -15.4349921
7.184                0.995926453     -15.4570523
7.186                 0.99593753     -15.4793613
7.188                0.995948653     -15.5016703
7.19                 0.995959821     -15.5239792
7.192                0.995971034     -15.5462882
7.194                0.995980649     -15.5688406
7.196                0.995990306     -15.5913931
7.198                0.996000006     -15.6139456
7.2                  0.996009748     -15.6364981
7.202                0.996017687     -15.6592845
7.204                0.996025666     -15.6820711
7.206                0.996033683     -15.7048577
7.208                0.996041739     -15.7276444
7.21                 0.996047815     -15.7506573
7.212                0.996053925     -15.7736704
7.214                 0.99606007     -15.7966836
7.216                0.996066249      -15.819697
7.218                0.996070259      -15.842921
7.22                 0.996074298     -15.8661451
7.222                0.996078366     -15.8893695
7.224                0.996082465      -15.912594
7.226                0.996084278     -15.9360192
7.228                0.996086114     -15.9594447
7.23                 0.996087976     -15.9828704
7.232                0.996089861     -16.0062964
7.234                0.996089335     -16.0299058
7.236                0.996088827     -16.0535156
7.238                0.996088337     -16.0771256
7.24                 0.996087866      -16.100736
7.242                 0.99608492     -16.1245183
7.244                0.996081986     -16.1483009
7.246                0.996079065     -16.1720839
7.248                0.996076155     -16.1958673
7.25                 0.996070726     -16.2198088
7.252                0.996065302     -16.2437507
7.254                0.996059884      -16.267693
7.256                 0.99605447     -16.2916358
7.258                0.996046533      -16.315716
7.26                 0.996038594     -16.3397968
7.262                0.996030653     -16.3638779
7.264                0.996022711     -16.3879596
7.266                0.996012282     -16.4121663
7.268                0.996001845     -16.4363736
7.27                 0.995991399     -16.4605813
7.272                0.995980945     -16.4847896
7.274                0.995968085     -16.5091047
7.276                0.995955209     -16.5334204
7.278                0.995942319     -16.5577366
7.28                 0.995929414     -16.5820534
7.282                0.995914219     -16.6064647
7.284                0.995899004     -16.6308767
7.286                0.995883766     -16.6552892
7.288                0.995868508     -16.6797022
7.29                 0.995851121      -16.704194
7.292                0.995833706     -16.7286865
7.294                0.995816264     -16.7531795
7.296                0.995798794      -16.777673
7.298                0.995779378     -16.8022347
7.3                  0.995759929     -16.8267969
7.302                0.995740447     -16.8513598
7.304                0.995720932     -16.8759232
7.306                0.995699708     -16.9005393
7.308                0.995678446      -16.925156
7.31                 0.995657146     -16.9497734
7.312                0.995635809     -16.9743913
7.314                0.995612998      -16.999056
7.316                0.995590145     -17.0237214
7.318                 0.99556725     -17.0483873
7.32                 0.995544313     -17.0730538
7.322                 0.99552016     -17.0977619
7.324                0.995495961     -17.1224706
7.326                0.995471716     -17.1471798
7.328                0.995447425     -17.1718896
7.33                 0.995422192     -17.1966318
7.332                 0.99539691     -17.2213745
7.334                0.995371579     -17.2461177
7.336                0.995346199     -17.2708615
7.338                0.995320153       -17.29564
7.34                 0.995294057     -17.3204191
7.342                0.995267909     -17.3451986
7.344                 0.99524171     -17.3699787
7.346                0.995215117     -17.3947871
7.348                 0.99518847      -17.419596
7.35                 0.995161771     -17.4444054
7.352                 0.99513502     -17.4692153
7.354                0.995108139     -17.4940607
7.356                0.995081204     -17.5189066
7.358                0.995054216      -17.543753
7.36                 0.995027175     -17.5685997
7.362                 0.99500028     -17.5934807
7.364                 0.99497333     -17.6183621
7.366                0.994946328     -17.6432438
7.368                0.994919271     -17.6681259
7.37                 0.994892602      -17.693048
7.372                0.994865879     -17.7179703
7.374                0.994839104      -17.742893
7.376                0.994812275     -17.7678161
7.378                0.994786082     -17.7927867
7.38                 0.994759837     -17.8177577
7.382                 0.99473354     -17.8427289
7.384                0.994707191     -17.8677005
7.386                0.994681704     -17.8927207
7.388                0.994656168     -17.9177412
7.39                 0.994630581     -17.9427619
7.392                0.994604944     -17.9677829
7.394                0.994580402     -17.9928671
7.396                0.994555813     -18.0179516
7.398                0.994531175     -18.0430363
7.4                   0.99450649     -18.0681212
7.402                 0.99448309     -18.0932788
7.404                0.994459644     -18.1184367
7.406                0.994436153     -18.1435947
7.408                0.994412618     -18.1687529
7.41                 0.994390599     -18.1939908
7.412                0.994368538     -18.2192288
7.414                0.994346436     -18.2444671
7.416                0.994324292     -18.2697054
7.418                0.994303835     -18.2950398
7.42                 0.994283341     -18.3203744
7.422                0.994262809      -18.345709
7.424                 0.99424224     -18.3710438
7.426                0.994223521     -18.3964883
7.428                0.994204769     -18.4219329
7.43                 0.994185984     -18.4473775
7.432                0.994167166     -18.4728223
7.434                0.994150332     -18.4983947
7.436                 0.99413347     -18.5239671
7.438                 0.99411658     -18.5495396
7.44                  0.99409966     -18.5751122
7.442                 0.99408485     -18.6008272
7.444                0.994070016     -18.6265423
7.446                0.994055158     -18.6522574
7.448                0.994040277     -18.6779725
7.45                 0.994027563     -18.7038507
7.452                0.994014831     -18.7297289
7.454                 0.99400208     -18.7556071
7.456                0.993989312     -18.7814852
7.458                0.993978745     -18.8075427
7.46                 0.993968166     -18.8336002
7.462                0.993957574     -18.8596577
7.464                 0.99394697      -18.885715
7.466                0.993938566     -18.9119771
7.468                0.993930156     -18.9382392
7.47                 0.993921739     -18.9645011
7.472                0.993913315     -18.9907629
7.474                0.993907012     -19.0172473
7.476                0.993900709     -19.0437316
7.478                0.993894404     -19.0702157
7.48                 0.993888098     -19.0966997
7.482                0.993883814     -19.1234277
7.484                0.993879534     -19.1501555
7.486                0.993875259     -19.1768832
7.488                0.993870988     -19.2036106
7.49                 0.993868605     -19.2305964
7.492                0.993866232      -19.257582
7.494                0.993863869     -19.2845673
7.496                0.993861515     -19.3115524
7.498                 0.99386086     -19.3388144
7.5                  0.993860219      -19.366076
7.502                0.993859593     -19.3933375
7.504                0.993858981     -19.4205986
7.506                0.993859855     -19.4481555
7.508                0.993860748     -19.4757121
7.51                  0.99386166     -19.5032684
7.512                0.993862591     -19.5308245
7.514                0.993864783     -19.5586851
7.516                0.993866998     -19.5865454
7.518                0.993869236     -19.6144054
7.52                 0.993871498      -19.642265
7.522                0.993874776     -19.6704428
7.524                 0.99387808     -19.6986202
7.526                0.993881412     -19.7267972
7.528                 0.99388477      -19.754974
7.53                 0.993888903     -19.7834797
7.532                0.993893065      -19.811985
7.534                0.993897258       -19.84049
7.536                0.993901481     -19.8689947
7.538                0.993906226     -19.8978301
7.54                 0.993911003     -19.9266651
7.542                0.993915814     -19.9554998
7.544                0.993920657     -19.9843341
7.546                0.993925776     -20.0135114
7.548                0.993930931     -20.0426884
7.55                  0.99393612     -20.0718649
7.552                0.993941345     -20.1010412
7.554                0.993946617     -20.1305629
7.556                0.993951926     -20.1600843
7.558                0.993957272     -20.1896053
7.56                 0.993962654      -20.219126
7.562                0.993967844     -20.2489976
7.564                0.993973072     -20.2788689
7.566                0.993978338     -20.3087398
7.568                0.993983642     -20.3386104
7.57                 0.993988537       -20.36883
7.572                0.993993471     -20.3990492
7.574                0.993998443      -20.429268
7.576                0.994003452     -20.4594865
7.578                0.994007807     -20.4900635
7.58                 0.994012199     -20.5206401
7.582                0.994016629     -20.5512164
7.584                0.994021096     -20.5817924
7.586                0.994024702     -20.6127213
7.588                0.994028345       -20.64365
7.59                 0.994032025     -20.6745783
7.592                0.994035741     -20.7055063
7.594                0.994038377     -20.7367912
7.596                0.994041048     -20.7680757
7.598                0.994043754       -20.79936
7.6                  0.994046495      -20.830644
7.602                0.994047918     -20.8622805
7.604                0.994049373     -20.8939167
7.606                0.994050861     -20.9255526
7.608                0.994052381     -20.9571884
7.61                 0.994052373     -20.9891739
7.612                0.994052395     -21.0211592
7.614                0.994052446     -21.0531444
7.616                0.994052526     -21.0851292
7.618                0.994050849     -21.1174626
7.62                 0.994049197     -21.1497958
7.622                 0.99404757     -21.1821289
7.624                0.994045969     -21.2144617
7.626                0.994042446     -21.2471355
7.628                0.994038944     -21.2798092
7.63                 0.994035463     -21.3124827
7.632                0.994032003     -21.3451561
7.634                0.994026405     -21.3781581
7.636                0.994020823     -21.4111599
7.638                0.994015256     -21.4441616
7.64                 0.994009704     -21.4771631
7.642                0.994001898     -21.5104868
7.644                0.993994102     -21.5438104
7.646                0.993986316     -21.5771338
7.648                0.993978538     -21.6104572
7.65                 0.993968371     -21.6440883
7.652                0.993958208     -21.6777193
7.654                0.993948047     -21.7113503
7.656                 0.99393789     -21.7449811
7.658                0.993925281     -21.7789094
7.66                 0.993912668     -21.8128377
7.662                0.993900051     -21.8467659
7.664                0.993887431      -21.880694
7.666                0.993872377     -21.9149061
7.668                0.993857312     -21.9491181
7.67                 0.993842237     -21.9833301
7.672                0.993827152     -22.0175419
7.674                0.993809602     -22.0520217
7.676                0.993792035     -22.0865015
7.678                0.993774451     -22.1209811
7.68                  0.99375685     -22.1554607
7.682                  0.9937369      -22.190198
7.684                0.993716926     -22.2249353
7.686                0.993696929     -22.2596725
7.688                0.993676908     -22.2944096
7.69                 0.993654621       -22.32939
7.692                0.993632303     -22.3643704
7.694                0.993609956     -22.3993506
7.696                0.993587578     -22.4343308
7.698                0.993563118     -22.4695485
7.7                  0.993538622     -22.5047662
7.702                 0.99351409     -22.5399837
7.704                0.993489522     -22.5752012
7.706                 0.99346303     -22.6106457
7.708                0.993436496     -22.6460901
7.71                  0.99340992     -22.6815343
7.712                0.993383302     -22.7169784
7.714                0.993354982     -22.7526426
7.716                0.993326615     -22.7883067
7.718                  0.9932982     -22.8239706
7.72                 0.993269738     -22.8596343
7.722                0.993239765     -22.8955115
7.724                 0.99320974     -22.9313886
7.726                0.993179664     -22.9672653
7.728                0.993149535     -23.0031419
7.73                  0.99311812     -23.0392321
7.732                0.993086648     -23.0753221
7.734                0.993055121     -23.1114118
7.736                0.993023538     -23.1475012
7.738                0.992990891     -23.1838068
7.74                 0.992958184      -23.220112
7.742                0.992925418     -23.2564168
7.744                0.992892592     -23.2927213
7.746                0.992858887     -23.3292383
7.748                0.992825119     -23.3657548
7.75                 0.992791289     -23.4022709
7.752                0.992757396     -23.4387865
7.754                0.992722879     -23.4755162
7.756                0.992688297     -23.5122455
7.758                0.992653651     -23.5489742
7.76                 0.992618939     -23.5857023
7.762                0.992583779     -23.6226508
7.764                0.992548553     -23.6595987
7.766                0.992513259     -23.6965459
7.768                0.992477898     -23.7334925
7.77                 0.992442275     -23.7706593
7.772                0.992406584     -23.8078254
7.774                0.992370824     -23.8449908
7.776                0.992334996     -23.8821554
7.778                0.992299143     -23.9195465
7.78                 0.992263221     -23.9569368
7.782                 0.99222723     -23.9943262
7.784                 0.99219117     -24.0317149
7.786                0.992155325     -24.0693357
7.788                0.992119411     -24.1069555
7.79                 0.992083428     -24.1445745
7.792                0.992047376     -24.1821926
7.794                0.992011713     -24.2200444
7.796                0.991975983     -24.2578953
7.798                0.991940184     -24.2957451
7.8                  0.991904316      -24.333594
7.802                0.991869121     -24.3716931
7.804                0.991833859     -24.4097912
7.806                0.991798529     -24.4478882
7.808                0.991763133     -24.4859841
7.81                 0.991728627     -24.5243349
7.812                0.991694057     -24.5626846
7.814                0.991659422     -24.6010331
7.816                0.991624722     -24.6393804
7.818                 0.99159115     -24.6779936
7.82                 0.991557516     -24.7166056
7.822                0.991523821     -24.7552162
7.824                0.991490063     -24.7938256
7.826                0.991457674     -24.8327214
7.828                0.991425227     -24.8716158
7.83                 0.991392722     -24.9105088
7.832                0.991360159     -24.9494005
7.834                0.991329177     -24.9885909
7.836                 0.99129814     -25.0277799
7.838                 0.99126705     -25.0669674
7.84                 0.991235906     -25.1061534
7.842                0.991206515     -25.1456632
7.844                0.991177074     -25.1851714
7.846                0.991147584     -25.2246781
7.848                0.991118045     -25.2641832
7.85                 0.991090377     -25.3040314
7.852                0.991062665      -25.343878
7.854                0.991034909     -25.3837229
7.856                0.991007109     -25.4235662
7.858                0.990981308     -25.4637784
7.86                  0.99095547      -25.503989
7.862                0.990929593     -25.5441978
7.864                0.990903678     -25.5844049
7.866                0.990879781     -25.6250047
7.868                0.990855852     -25.6656026
7.87                 0.990831891     -25.7061986
7.872                0.990807897     -25.7467928
7.874                0.990785912     -25.7878091
7.876                0.990763901     -25.8288234
7.878                0.990741864     -25.8698359
7.88                 0.990719801     -25.9108463
7.882                0.990699647     -25.9522976
7.884                0.990679473     -25.9937469
7.886                0.990659279     -26.0351942
7.888                0.990639065     -26.0766393
7.89                 0.990620694     -26.1185543
7.892                0.990602309     -26.1604672
7.894                 0.99058391     -26.2023778
7.896                0.990565496     -26.2442864
7.898                0.990548728     -26.2866852
7.9                  0.990531952     -26.3290819
7.902                0.990515166     -26.3714762
7.904                0.990498372     -26.4138684
7.906                0.990483053     -26.4567688
7.908                0.990467731     -26.4996669
7.91                 0.990452405     -26.5425626
7.912                0.990437076      -26.585456
7.914                0.990423015      -26.628882
7.916                0.990408955     -26.6723057
7.918                0.990394897     -26.7157269
7.92                 0.990380839     -26.7591456
7.922                0.990367889     -26.8031136
7.924                0.990354944      -26.847079
7.926                0.990342006     -26.8910418
7.928                0.990329073     -26.9350021
7.93                 0.990316984     -26.9795246
7.932                0.990304905     -27.0240444
7.934                0.990292836     -27.0685615
7.936                0.990280776      -27.113076
7.938                0.990269387     -27.1581699
7.94                 0.990258011      -27.203261
7.942                0.990246648     -27.2483493
7.944                0.990235299     -27.2934349
7.946                 0.99022444     -27.3391102
7.948                0.990213598     -27.3847827
7.95                 0.990202773     -27.4304523
7.952                0.990191965     -27.4761191
7.954                0.990181416      -27.522398
7.956                0.990170888      -27.568674
7.958                0.990160378     -27.6149471
7.96                 0.990149889     -27.6612173
7.962                0.990139439     -27.7081058
7.964                 0.99012901     -27.7549914
7.966                0.990118604     -27.8018739
7.968                0.990108219     -27.8487534
7.97                 0.990097676     -27.8962668
7.972                0.990087156      -27.943777
7.974                 0.99007666     -27.9912842
7.976                0.990066187     -28.0387883
7.978                0.990055346     -28.0869386
7.98                  0.99004453     -28.1350856
7.982                0.990033738     -28.1832295
7.984                 0.99002297     -28.2313703
7.986                0.990011589     -28.2801759
7.988                0.990000233     -28.3289784
7.99                 0.989988901     -28.3777777
7.992                0.989977594     -28.4265736
7.994                0.989965364     -28.4760382
7.996                0.989953157     -28.5254994
7.998                0.989940974     -28.5749572
8                    0.989928814     -28.6244117
8.002                0.989915505     -28.6745481
8.004                0.989902217      -28.724681
8.006                0.989888951     -28.7748104
8.008                0.989875707     -28.8249364
8.01                 0.989860953     -28.8757572
8.012                0.989846218     -28.9265745
8.014                0.989831502     -28.9773882
8.016                0.989816805     -29.0281985
8.018                0.989800371     -29.0797026
8.02                 0.989783952      -29.131203
8.022                0.989767548     -29.1826998
8.024                0.989751159     -29.2341928
8.026                0.989732692      -29.286389
8.028                0.989714235     -29.3385814
8.03                 0.989695789       -29.39077
8.032                0.989677352     -29.4429549
8.034                 0.98965654     -29.4958356
8.036                0.989635733     -29.5487123
8.038                 0.98961493     -29.6015849
8.04                 0.989594131     -29.6544537
8.042                0.989570758     -29.7080195
8.044                0.989547383     -29.7615812
8.046                0.989524004     -29.8151388
8.048                0.989500623     -29.8686922
8.05                 0.989474423     -29.9229444
8.052                0.989448212     -29.9771924
8.054                 0.98942199      -30.031436
8.056                0.989395758     -30.0856755
8.058                0.989366596     -30.1405975
8.06                 0.989337415     -30.1955151
8.062                0.989308215     -30.2504282
8.064                0.989278996     -30.3053368
8.066                0.989246719     -30.3609331
8.068                0.989214414     -30.4165248
8.07                  0.98918208     -30.4721118
8.072                0.989149717     -30.5276943
8.074                0.989114312      -30.583943
8.076                0.989078869     -30.6401868
8.078                0.989043389     -30.6964258
8.08                 0.989007871     -30.7526599
8.082                0.988969256     -30.8095662
8.084                0.988930593     -30.8664675
8.086                0.988891883     -30.9233636
8.088                0.988853127     -30.9802547
8.09                 0.988811351     -31.0378088
8.092                0.988769518     -31.0953577
8.094                0.988727629     -31.1529012
8.096                0.988685683     -31.2104396
8.098                0.988640869     -31.2686354
8.1                  0.988595988     -31.3268257
8.102                0.988551042     -31.3850104
8.104                0.988506031     -31.4431895
8.106                0.988458247     -31.5020266
8.108                0.988410389     -31.5608578
8.11                 0.988362456     -31.6196832
8.112                0.988314448     -31.6785027
8.114                0.988263827     -31.7379878
8.116                0.988213122      -31.797467
8.118                0.988162334       -31.85694
8.12                 0.988111463     -31.9164069
8.122                 0.98805815     -31.9765299
8.124                0.988004745     -32.0366463
8.126                 0.98795125     -32.0967564
8.128                0.987897663     -32.1568599
8.13                 0.987841774     -32.2176424
8.132                0.987785786     -32.2784181
8.134                0.987729699      -32.339187
8.136                0.987673514     -32.3999492
8.138                0.987615261      -32.461375
8.14                 0.987556903     -32.5227937
8.142                 0.98749844     -32.5842052
8.144                0.987439872     -32.6456094
8.146                0.987379365     -32.7077023
8.148                0.987318748     -32.7697877
8.15                 0.987258019     -32.8318654
8.152                0.987197179     -32.8939356
8.154                0.987134513     -32.9567029
8.156                 0.98707173     -33.0194624
8.158                0.987008829     -33.0822138
8.16                 0.986945811     -33.1449573
8.162                0.986881181     -33.2083972
8.164                0.986816428     -33.2718285
8.166                0.986751552     -33.3352515
8.168                0.986686555      -33.398666
8.17                 0.986620166     -33.4627977
8.172                 0.98655365     -33.5269205
8.174                0.986487008     -33.5910345
8.176                0.986420238     -33.6551397
8.178                0.986352215     -33.7199581
8.18                 0.986284061     -33.7847672
8.182                0.986215775     -33.8495669
8.184                0.986147359     -33.9143572
8.186                0.986077935     -33.9798814
8.188                0.986008377     -34.0453957
8.19                 0.985938685     -34.1109001
8.192                0.985868857     -34.1763946
8.194                0.985798295     -34.2426427
8.196                0.985727596     -34.3088807
8.198                0.985656759     -34.3751082
8.2                  0.985585784     -34.4413253