! TOUCHSTONE file generated by CST DESIGN STUDIO
! Date and time: Mon Feb 10 16:45:23 2025
! Project name: C:\Work\MatlabApps\UnitCellType2OptimizationMatlab\CST\unitcell.cst
! Tree item: Tasks\Sweep1\SPara1\S-Parameters
! Header version: 2024
! Port assignment regex: !\s*Touchstone port\s*([0-9]+)\s*=\s*(CST MWS port|CST DES external port|CST DES block port)\s*(.+)\s* \(\"(.*)\"\)(\s*mode\s*([0-9]+))?.*
! Touchstone port assignment:
! Touchstone port 1 = CST DES external port 1 ("")
# GHz S MA R 50
7                    0.994551492     -12.8010643
7.002                0.994537821     -12.8183769
7.004                 0.99452412     -12.8356901
7.006                0.994510392     -12.8530038
7.008                0.994496634      -12.870318
7.01                 0.994485765     -12.8876631
7.012                0.994474872     -12.9050087
7.014                0.994463957     -12.9223548
7.016                 0.99445302     -12.9397014
7.018                0.994445048     -12.9571006
7.02                  0.99443706     -12.9745002
7.022                0.994429056     -12.9919003
7.024                0.994421034     -13.0093009
7.026                0.994415966     -13.0267767
7.028                0.994410887     -13.0442531
7.03                 0.994405797     -13.0617299
7.032                0.994400697     -13.0792071
7.034                0.994398518     -13.0967818
7.036                0.994396334     -13.1143569
7.038                0.994394146     -13.1319325
7.04                 0.994391953     -13.1495085
7.042                0.994392597     -13.1672036
7.044                0.994393241     -13.1848991
7.046                0.994393887     -13.2025951
7.048                0.994394534     -13.2202914
7.05                 0.994397911     -13.2381266
7.052                0.994401294     -13.2559621
7.054                0.994404685      -13.273798
7.056                0.994408081     -13.2916343
7.058                0.994414042     -13.3096299
7.06                 0.994420014     -13.3276258
7.062                0.994425999     -13.3456221
7.064                0.994431995     -13.3636186
7.066                0.994440372     -13.3817954
7.068                0.994448766     -13.3999723
7.07                 0.994457176     -13.4181496
7.072                0.994465604     -13.4363271
7.074                0.994476186     -13.4547004
7.076                 0.99448679      -13.473074
7.078                0.994497416     -13.4914477
7.08                 0.994508064     -13.5098217
7.082                0.994520596     -13.5284085
7.084                0.994533155     -13.5469955
7.086                0.994545741     -13.5655825
7.088                0.994558353     -13.5841698
7.09                 0.994572581     -13.6029819
7.092                0.994586841      -13.621794
7.094                0.994601132     -13.6406063
7.096                0.994615453     -13.6594185
7.098                0.994631064     -13.6784743
7.1                   0.99464671     -13.6975301
7.102                0.994662391     -13.7165859
7.104                0.994678108     -13.7356417
7.106                0.994694781     -13.7549439
7.108                0.994711494      -13.774246
7.11                 0.994728245     -13.7935481
7.112                0.994745036     -13.8128501
7.114                0.994762428     -13.8324121
7.116                0.994779863     -13.8519739
7.118                 0.99479734     -13.8715356
7.12                  0.99481486     -13.8910971
7.122                0.994832631      -13.910917
7.124                0.994850448     -13.9307368
7.126                 0.99486831     -13.9505563
7.128                0.994886218     -13.9703756
7.13                 0.994904002     -13.9904605
7.132                0.994921835     -14.0105451
7.134                0.994939715     -14.0306294
7.136                0.994957644     -14.0507136
7.138                0.994975101     -14.0710618
7.14                 0.994992607     -14.0914098
7.142                0.995010163     -14.1117575
7.144                0.995027769      -14.132105
7.146                0.995044564     -14.1527119
7.148                0.995061411     -14.1733187
7.15                 0.995078307     -14.1939251
7.152                0.995095255     -14.2145313
7.154                 0.99511108     -14.2353913
7.156                0.995126956      -14.256251
7.158                0.995142883     -14.2771104
7.16                 0.995158861     -14.2979696
7.162                0.995173415      -14.319075
7.164                0.995188019     -14.3401802
7.166                0.995202674     -14.3612851
7.168                 0.99521738     -14.3823898
7.17                 0.995230398     -14.4037349
7.172                0.995243465     -14.4250798
7.174                0.995256581     -14.4464245
7.176                0.995269746      -14.467769
7.178                0.995281009     -14.4893384
7.18                 0.995292319     -14.5109077
7.182                0.995303676     -14.5324769
7.184                0.995315079     -14.5540459
7.186                0.995324374     -14.5758275
7.188                0.995333713     -14.5976091
7.19                 0.995343095     -14.6193906
7.192                0.995352521      -14.641172
7.194                0.995359657     -14.6631552
7.196                0.995366832     -14.6851383
7.198                0.995374047     -14.7071214
7.2                    0.9953813     -14.7291046
7.202                0.995386138     -14.7512752
7.204                0.995391011     -14.7734458
7.206                0.995395917     -14.7956166
7.208                0.995400858     -14.8177874
7.21                 0.995403289     -14.8401337
7.212                0.995405749     -14.8624803
7.214                0.995408237      -14.884827
7.216                0.995410754     -14.9071739
7.218                0.995410663     -14.9296774
7.22                 0.995410594     -14.9521812
7.222                0.995410548     -14.9746853
7.224                0.995410524     -14.9971895
7.226                0.995407866     -15.0198376
7.228                0.995405225     -15.0424861
7.23                 0.995402599     -15.0651348
7.232                0.995399988     -15.0877838
7.234                0.995394718     -15.1105577
7.236                0.995389456      -15.133332
7.238                0.995384203     -15.1561066
7.24                 0.995378958     -15.1788816
7.242                0.995371083     -15.2017682
7.244                0.995363208     -15.2246552
7.246                0.995355335     -15.2475426
7.248                0.995347463     -15.2704304
7.25                 0.995337006     -15.2934152
7.252                0.995326543     -15.3164004
7.254                0.995316073     -15.3393861
7.256                0.995305597     -15.3623723
7.258                0.995292633     -15.3854345
7.26                 0.995279655     -15.4084973
7.262                0.995266664     -15.4315605
7.264                0.995253659     -15.4546242
7.266                0.995238288     -15.4777516
7.268                0.995222897     -15.5008796
7.27                 0.995207484     -15.5240081
7.272                0.995192051      -15.547137
7.274                0.995174429     -15.5703123
7.276                0.995156778      -15.593488
7.278                0.995139101     -15.6166642
7.28                 0.995121396      -15.639841
7.282                0.995101706     -15.6630527
7.284                0.995081983      -15.686265
7.286                0.995062227     -15.7094777
7.288                0.995042437      -15.732691
7.29                 0.995020914     -15.7559252
7.292                0.994999351       -15.77916
7.294                 0.99497775     -15.8023952
7.296                 0.99495611     -15.8256309
7.298                   0.994933     -15.8488793
7.3                  0.994909846     -15.8721281
7.302                0.994886649     -15.8953773
7.304                0.994863408      -15.918627
7.306                0.994839024     -15.9418773
7.308                0.994814591     -15.9651281
7.31                 0.994790112     -15.9883792
7.312                0.994765585     -16.0116308
7.314                 0.99474022     -16.0348807
7.316                0.994714804     -16.0581309
7.318                0.994689339     -16.0813816
7.32                 0.994663824     -16.1046326
7.322                0.994637791     -16.1278812
7.324                0.994611707       -16.15113
7.326                0.994585571     -16.1743793
7.328                0.994559383     -16.1976288
7.33                 0.994533009      -16.220872
7.332                0.994506582     -16.2441155
7.334                0.994480103     -16.2673593
7.336                0.994453572     -16.2906033
7.338                0.994427164     -16.3138487
7.34                 0.994400703     -16.3370942
7.342                0.994374191       -16.36034
7.344                0.994347627     -16.3835861
7.346                0.994321485     -16.4068337
7.348                0.994295293     -16.4300814
7.35                 0.994269049     -16.4533293
7.352                0.994242756     -16.4765774
7.354                0.994217148       -16.49984
7.356                0.994191493     -16.5231028
7.358                0.994165788     -16.5463656
7.36                 0.994140036     -16.5696286
7.362                0.994115235     -16.5929114
7.364                0.994090389     -16.6161942
7.366                0.994065497     -16.6394772
7.368                 0.99404056     -16.6627602
7.37                 0.994016783     -16.6860747
7.372                0.993992963     -16.7093892
7.374                  0.9939691     -16.7327038
7.376                0.993945195     -16.7560184
7.378                0.993922652     -16.7793777
7.38                 0.993900069     -16.8027371
7.382                0.993877447     -16.8260965
7.384                0.993854786     -16.8494559
7.386                0.993833656     -16.8728667
7.388                0.993812491     -16.8962775
7.39                 0.993791291     -16.9196883
7.392                0.993770055      -16.943099
7.394                0.993750508     -16.9665798
7.396                 0.99373093     -16.9900605
7.398                0.993711321     -17.0135412
7.4                   0.99369168     -17.0370219
7.402                0.993673838     -17.0605857
7.404                 0.99365597     -17.0841496
7.406                0.993638075     -17.1077133
7.408                0.993620154     -17.1312771
7.41                  0.99360418     -17.1549342
7.412                0.993588185     -17.1785913
7.414                0.993572168     -17.2022483
7.416                 0.99355613     -17.2259052
7.418                0.993542123     -17.2496739
7.42                 0.993528099     -17.2734425
7.422                0.993514059     -17.2972109
7.424                0.993500002     -17.3209794
7.426                0.993488052     -17.3448747
7.428                 0.99347609       -17.36877
7.43                 0.993464117     -17.3926651
7.432                0.993452132     -17.4165602
7.434                0.993442308      -17.440601
7.436                0.993432478     -17.4646416
7.438                0.993422641     -17.4886821
7.44                 0.993412797     -17.5127225
7.442                0.993405157     -17.5369241
7.444                0.993397515     -17.5611256
7.446                0.993389872     -17.5853269
7.448                0.993382228     -17.6095281
7.45                 0.993376762     -17.6339112
7.452                0.993371301      -17.658294
7.454                0.993365843     -17.6826768
7.456                 0.99336039     -17.7070593
7.458                0.993357073       -17.73164
7.46                 0.993353765     -17.7562204
7.462                0.993350466     -17.7808007
7.464                0.993347176     -17.8053808
7.466                0.993345943     -17.8301834
7.468                0.993344724     -17.8549858
7.47                  0.99334352      -17.879788
7.472                 0.99334233     -17.9045899
7.474                0.993343039     -17.9296313
7.476                0.993343767     -17.9546725
7.478                0.993344515     -17.9797133
7.48                 0.993345283     -18.0047539
7.482                0.993347767     -18.0300539
7.484                0.993350275     -18.0553537
7.486                0.993352808     -18.0806531
7.488                0.993355364     -18.1059522
7.49                 0.993359425     -18.1315233
7.492                0.993363514     -18.1570941
7.494                0.993367631     -18.1826646
7.496                0.993371777     -18.2082347
7.498                0.993377155     -18.2340925
7.5                  0.993382565     -18.2599498
7.502                0.993388007     -18.2858068
7.504                0.993393481     -18.3116635
7.506                  0.9933999     -18.3378231
7.508                0.993406354     -18.3639824
7.51                 0.993412843     -18.3901413
7.512                0.993419367     -18.4162997
7.514                0.993426537     -18.4427662
7.516                0.993433744     -18.4692322
7.518                0.993440989     -18.4956978
7.52                 0.993448271     -18.5221629
7.522                0.993455893     -18.5489444
7.524                0.993463554     -18.5757254
7.526                0.993471255      -18.602506
7.528                0.993478995     -18.6292861
7.53                 0.993486779     -18.6563877
7.532                0.993494603     -18.6834887
7.534                0.993502469     -18.7105893
7.536                0.993510375     -18.7376893
7.538                0.993518037     -18.7651071
7.54                 0.993525741     -18.7925242
7.542                0.993533487     -18.8199409
7.544                0.993541274     -18.8473569
7.546                 0.99354855     -18.8750956
7.548                0.993555869     -18.9028337
7.55                 0.993563229     -18.9305713
7.552                0.993570632     -18.9583083
7.554                0.993577294      -18.986364
7.556                0.993583999      -19.014419
7.558                0.993590744     -19.0424735
7.56                 0.993597532     -19.0705275
7.562                0.993603354     -19.0988984
7.564                0.993609216     -19.1272689
7.566                0.993615119     -19.1556387
7.568                0.993621062     -19.1840081
7.57                 0.993625863     -19.2126862
7.572                0.993630702     -19.2413639
7.574                 0.99363558     -19.2700409
7.576                0.993640497     -19.2987174
7.578                0.993644073     -19.3277055
7.58                 0.993647684      -19.356693
7.582                0.993651332       -19.38568
7.584                0.993655016     -19.4146664
7.586                0.993657218     -19.4439541
7.588                0.993659453     -19.4732411
7.59                 0.993661721     -19.5025277
7.592                0.993664022     -19.5318136
7.594                0.993664692     -19.5613998
7.596                0.993665392     -19.5909854
7.598                0.993666122     -19.6205704
7.6                  0.993666881     -19.6501549
7.602                0.993665853     -19.6800314
7.604                 0.99366485     -19.7099072
7.606                0.993663873     -19.7397825
7.608                 0.99366292     -19.7696573
7.61                 0.993660051     -19.7998182
7.612                0.993657203     -19.8299786
7.614                0.993654375     -19.8601384
7.616                0.993651568     -19.8902976
7.618                0.993646693     -19.9207387
7.62                 0.993641834     -19.9511792
7.622                 0.99363699     -19.9816192
7.624                0.993632162     -20.0120586
7.626                0.993625185     -20.0427704
7.628                0.993618217     -20.0734817
7.63                 0.993611259     -20.1041924
7.632                0.993604311     -20.1349024
7.634                0.993595075     -20.1658716
7.636                0.993585842     -20.1968401
7.638                0.993576612     -20.2278079
7.64                 0.993567385     -20.2587752
7.642                0.993555828     -20.2899931
7.644                0.993544268     -20.3212104
7.646                0.993532705     -20.3524269
7.648                0.993521137     -20.3836429
7.65                 0.993507178     -20.4150943
7.652                0.993493209      -20.446545
7.654                0.993479229     -20.4779951
7.656                0.993465239     -20.5094443
7.658                0.993448869     -20.5411181
7.66                 0.993432482     -20.5727911
7.662                0.993416077     -20.6044633
7.664                0.993399655     -20.6361347
7.666                0.993380946     -20.6680163
7.668                0.993362212      -20.699897
7.67                 0.993343455     -20.7317768
7.672                0.993324674     -20.7636558
7.674                0.993303654     -20.7957289
7.676                0.993282604     -20.8278011
7.678                0.993261524     -20.8598723
7.68                 0.993240414     -20.8919426
7.682                0.993217259     -20.9241967
7.684                0.993194068     -20.9564498
7.686                0.993170841     -20.9887019
7.688                0.993147578     -21.0209529
7.69                  0.99312244     -21.0533741
7.692                0.993097261     -21.0857943
7.694                0.993072041     -21.1182133
7.696                 0.99304678     -21.1506313
7.698                0.993019908     -21.1832149
7.7                  0.992992989     -21.2157973
7.702                0.992966025     -21.2483785
7.704                0.992939016     -21.2809586
7.706                 0.99291064     -21.3136958
7.708                0.992882214     -21.3464317
7.71                 0.992853739     -21.3791664
7.712                0.992825215     -21.4118997
7.714                0.992795622     -21.4447864
7.716                0.992765977     -21.4776717
7.718                0.992736279     -21.5105556
7.72                 0.992706529     -21.5434382
7.722                0.992675969     -21.5764715
7.724                0.992645355     -21.6095033
7.726                0.992614687     -21.6425336
7.728                0.992583965     -21.6755624
7.73                 0.992552723     -21.7087466
7.732                0.992521426     -21.7419292
7.734                0.992490075     -21.7751101
7.736                0.992458668     -21.8082894
7.738                0.992426994     -21.8416318
7.74                 0.992395266     -21.8749725
7.742                0.992363482     -21.9083114
7.744                0.992331644     -21.9416486
7.746                 0.99229975     -21.9751512
7.748                0.992267803     -22.0086519
7.75                 0.992235801     -22.0421508
7.752                0.992203746     -22.0756479
7.754                0.992171886     -22.1093183
7.756                0.992139973     -22.1429867
7.758                0.992108008     -22.1766531
7.76                 0.992075991     -22.2103175
7.762                0.992044334     -22.2441669
7.764                0.992012627     -22.2780141
7.766                0.991980869     -22.3118593
7.768                0.991949061     -22.3457023
7.77                 0.991917754     -22.3797363
7.772                  0.9918864      -22.413768
7.774                0.991854997     -22.4477976
7.776                0.991823547      -22.481825
7.778                0.991792778     -22.5160546
7.78                 0.991761964     -22.5502819
7.782                0.991731105     -22.5845069
7.784                0.991700201     -22.6187297
7.786                0.991670148     -22.6531643
7.788                0.991640054     -22.6875965
7.79                 0.991609917     -22.7220264
7.792                 0.99157974     -22.7564538
7.794                0.991550513      -22.791099
7.796                0.991521248     -22.8257418
7.798                0.991491946      -22.860382
7.8                  0.991462605     -22.8950197
7.802                0.991434406     -22.9298934
7.804                0.991406173     -22.9647645
7.806                0.991377907      -22.999633
7.808                0.991349607      -23.034499
7.81                 0.991322587     -23.0696081
7.812                0.991295539     -23.1047145
7.814                0.991268461     -23.1398183
7.816                0.991241354     -23.1749194
7.818                0.991215673     -23.2102756
7.82                 0.991189967      -23.245629
7.822                0.991164237     -23.2809798
7.824                0.991138483     -23.3163277
7.826                 0.99111432     -23.3519512
7.828                0.991090137     -23.3875719
7.83                 0.991065934     -23.4231898
7.832                0.991041712     -23.4588049
7.834                0.991019209     -23.4947082
7.836                0.990996692     -23.5306087
7.838                 0.99097416     -23.5665062
7.84                 0.990951613     -23.6024009
7.842                0.990930894     -23.6386081
7.844                0.990910165     -23.6748123
7.846                0.990889427     -23.7110136
7.848                0.990868678     -23.7472119
7.85                 0.990849793     -23.7837417
7.852                0.990830904     -23.8202685
7.854                 0.99081201     -23.8567922
7.856                0.990793111     -23.8933129
7.858                0.990776143       -23.93019
7.86                 0.990759176     -23.9670639
7.862                0.990742209     -24.0039348
7.864                0.990725242     -24.0408026
7.866                0.990710146     -24.0780493
7.868                0.990695056     -24.1152928
7.87                 0.990679972     -24.1525331
7.872                0.990664893     -24.1897702
7.874                0.990651598     -24.2274142
7.876                0.990638313     -24.2650549
7.878                0.990625039     -24.3026923
7.88                 0.990611777     -24.3403264
7.882                0.990600133     -24.3783846
7.884                0.990588506     -24.4164393
7.886                0.990576895     -24.4544907
7.888                0.990565299     -24.4925387
7.89                 0.990555157     -24.5310369
7.892                0.990545035     -24.5695316
7.894                0.990534933     -24.6080229
7.896                0.990524852     -24.6465106
7.898                0.990515945     -24.6854662
7.9                  0.990507062     -24.7244181
7.902                0.990498203     -24.7633665
7.904                0.990489369     -24.8023112
7.906                0.990481457     -24.8417375
7.908                0.990473573     -24.8811601
7.91                 0.990465716      -24.920579
7.912                0.990457887     -24.9599941
7.914                0.990450689     -24.9999097
7.916                0.990443522     -25.0398214
7.918                0.990436385     -25.0797293
7.92                 0.990429279     -25.1196333
7.922                0.990422567     -25.1600483
7.924                0.990415888     -25.2004594
7.926                0.990409242     -25.2408663
7.928                 0.99040263     -25.2812693
7.93                 0.990396096     -25.3221893
7.932                0.990389597     -25.3631052
7.934                0.990383133     -25.4040168
7.936                0.990376703     -25.4449243
7.938                0.990370132     -25.4863581
7.94                 0.990363596     -25.5277876
7.942                0.990357095     -25.5692127
7.944                0.990350631     -25.6106335
7.946                0.990343827     -25.6525829
7.948                0.990337059     -25.6945279
7.95                 0.990330327     -25.7364683
7.952                0.990323631     -25.7784043
7.954                0.990316362      -25.820882
7.956                0.990309128     -25.8633551
7.958                0.990301929     -25.9058235
7.96                 0.990294765     -25.9482873
7.962                0.990286843     -25.9912909
7.964                0.990278953     -26.0342897
7.966                0.990271097     -26.0772837
7.968                0.990263274     -26.1202729
7.97                 0.990254534      -26.163809
7.972                0.990245824     -26.2073402
7.974                0.990237144     -26.2508664
7.976                0.990228495     -26.2943877
7.978                0.990218783     -26.3384604
7.98                 0.990209098      -26.382528
7.982                 0.99019944     -26.4265904
7.984                 0.99018981     -26.4706477
7.986                0.990178952     -26.5152675
7.988                0.990168116     -26.5598821
7.99                 0.990157304     -26.6044915
7.992                0.990146514     -26.6490955
7.994                0.990134284     -26.6942597
7.996                0.990122072     -26.7394185
7.998                0.990109877     -26.7845718
8                    0.990097701     -26.8297196
8.002                0.990083945     -26.8754356
8.004                0.990070203      -26.921146
8.006                0.990056472     -26.9668506
8.008                0.990042755     -27.0125496
8.01                 0.990027206     -27.0588241
8.012                0.990011663     -27.1050927
8.014                0.989996128     -27.1513555
8.016                0.989980599     -27.1976124
8.018                0.989963094     -27.2444409
8.02                 0.989945591     -27.2912633
8.022                0.989928088     -27.3380795
8.024                0.989910586     -27.3848895
8.026                0.989890866     -27.4322763
8.028                 0.98987114     -27.4796567
8.03                 0.989851409     -27.5270307
8.032                0.989831671     -27.5743983
8.034                0.989809509      -27.622333
8.036                0.989787334     -27.6702609
8.038                0.989765147      -27.718182
8.04                 0.989742948     -27.7660964
8.042                0.989718199     -27.8145762
8.044                 0.98969343     -27.8630488
8.046                0.989668643     -27.9115143
8.048                0.989643838     -27.9599727
8.05                 0.989616324     -28.0089948
8.052                0.989588785     -28.0580095
8.054                0.989561222     -28.1070167
8.056                0.989533632     -28.1560164
8.058                0.989503296     -28.2055626
8.06                 0.989472928     -28.2551009
8.062                 0.98944253     -28.3046312
8.064                  0.9894121     -28.3541536
8.066                0.989378881     -28.4042241
8.068                0.989345626     -28.4542863
8.07                 0.989312333       -28.50434
8.072                0.989279003     -28.5543854
8.074                0.989242976     -28.6049576
8.076                0.989206907     -28.6555209
8.078                0.989170797     -28.7060753
8.08                 0.989134644     -28.7566207
8.082                0.989095826     -28.8076964
8.084                0.989056962     -28.8587626
8.086                 0.98901805     -28.9098194
8.088                0.988979092     -28.9608666
8.09                 0.988937648     -29.0124345
8.092                0.988896152     -29.0639924
8.094                0.988854606     -29.1155403
8.096                0.988813008     -29.1670782
8.098                0.988769151      -29.219132
8.1                   0.98872524     -29.2711751
8.102                0.988681274     -29.3232077
8.104                0.988637253     -29.3752298
8.106                0.988591167     -29.4277686
8.108                0.988545022     -29.4802964
8.11                 0.988498819     -29.5328131
8.112                0.988452558     -29.5853187
8.114                0.988404484     -29.6383493
8.116                0.988356348     -29.6913686
8.118                 0.98830815     -29.7443763
8.12                 0.988259891     -29.7973725
8.122                0.988210075      -29.850888
8.124                0.988160193     -29.9043916
8.126                0.988110245     -29.9578833
8.128                0.988060231     -30.0113631
8.13                 0.988008875      -30.065386
8.132                0.987957447     -30.1193967
8.134                0.987905949     -30.1733951
8.136                 0.98785438     -30.2273813
8.138                0.987801777     -30.2819018
8.14                 0.987749098     -30.3364096
8.142                0.987696342     -30.3909049
8.144                0.987643511     -30.4453876
8.146                0.987589819     -30.5004319
8.148                0.987536044     -30.5554632
8.15                 0.987482189     -30.6104817
8.152                0.987428253     -30.6654874
8.154                0.987373602     -30.7210672
8.156                0.987318865      -30.776634
8.158                0.987264043     -30.8321875
8.16                 0.987209134     -30.8877278
8.162                0.987153716     -30.9438478
8.164                0.987098208     -30.9999541
8.166                0.987042611     -31.0560468
8.168                0.986986924      -31.112126
8.17                  0.98693093     -31.1688087
8.172                0.986874844     -31.2254774
8.174                0.986818666     -31.2821321
8.176                0.986762398     -31.3387729
8.178                0.986705899     -31.3960191
8.18                 0.986649309     -31.4532507
8.182                0.986592627     -31.5104678
8.184                0.986535854     -31.5676704
8.186                0.986479025     -31.6255007
8.188                0.986422106      -31.683316
8.19                 0.986365099     -31.7411161
8.192                0.986308002     -31.7989012
8.194                 0.98625103     -31.8573352
8.196                0.986193973     -31.9157536
8.198                0.986136832     -31.9741563
8.2                  0.986079607     -32.0325434