! TOUCHSTONE file generated by CST DESIGN STUDIO
! Date and time: Mon Feb 10 16:45:18 2025
! Project name: C:\Work\MatlabApps\UnitCellType2OptimizationMatlab\CST\unitcell.cst
! Tree item: Tasks\Sweep1\SPara1\S-Parameters
! Header version: 2024
! Port assignment regex: !\s*Touchstone port\s*([0-9]+)\s*=\s*(CST MWS port|CST DES external port|CST DES block port)\s*(.+)\s* \(\"(.*)\"\)(\s*mode\s*([0-9]+))?.*
! Touchstone port assignment:
! Touchstone port 1 = CST DES external port 1 ("")
# GHz S MA R 50
7                     0.99608015     -13.9823832
7.002                 0.99607789     -14.0018711
7.004                0.996075603     -14.0213847
7.006                0.996073287     -14.0409242
7.008                0.996070944     -14.0604896
7.01                 0.996068573     -14.0800811
7.012                0.996066174     -14.0996986
7.014                0.996063747     -14.1193423
7.016                0.996061292     -14.1390123
7.018                 0.99605881     -14.1587085
7.02                 0.996056299     -14.1784311
7.022                 0.99605376     -14.1981802
7.024                0.996051194     -14.2179558
7.026                0.996048599      -14.237758
7.028                0.996045976     -14.2575869
7.03                 0.996043324     -14.2774425
7.032                0.996040645     -14.2973249
7.034                0.996037937     -14.3172342
7.036                0.996035201     -14.3371704
7.038                0.996032437     -14.3571337
7.04                 0.996029644     -14.3771242
7.042                0.996026823     -14.3971418
7.044                0.996023973     -14.4171866
7.046                0.996021095     -14.4372588
7.048                0.996018188     -14.4573584
7.05                 0.996015253     -14.4774855
7.052                0.996012289     -14.4976402
7.054                0.996009297     -14.5178225
7.056                0.996006275     -14.5380325
7.058                0.996003225     -14.5582703
7.06                 0.996000147      -14.578536
7.062                0.995997039     -14.5988296
7.064                0.995993903     -14.6191513
7.066                0.995990737      -14.639501
7.068                0.995987543      -14.659879
7.07                  0.99598432     -14.6802852
7.072                0.995981067     -14.7007197
7.074                0.995977786     -14.7211827
7.076                0.995974475     -14.7416742
7.078                0.995971136     -14.7621943
7.08                 0.995967767      -14.782743
7.082                0.995964369     -14.8033204
7.084                0.995960941     -14.8239267
7.086                0.995957484     -14.8445619
7.088                0.995953998      -14.865226
7.09                 0.995950482     -14.8859193
7.092                0.995946937     -14.9066417
7.094                0.995943363     -14.9273933
7.096                0.995939758     -14.9481742
7.098                0.995936124     -14.9689845
7.1                  0.995932461     -14.9898243
7.102                0.995928768     -15.0106936
7.104                0.995925045     -15.0315926
7.106                0.995921292     -15.0525214
7.108                0.995917509     -15.0734799
7.11                 0.995913696     -15.0944684
7.112                0.995909854     -15.1154868
7.114                0.995905981     -15.1365353
7.116                0.995902078     -15.1576139
7.118                0.995898145     -15.1787228
7.12                 0.995894182      -15.199862
7.122                0.995890189     -15.2210317
7.124                0.995886166     -15.2422318
7.126                0.995882112     -15.2634625
7.128                0.995878027     -15.2847239
7.13                 0.995873913      -15.306016
7.132                0.995869768      -15.327339
7.134                0.995865592      -15.348693
7.136                0.995861386     -15.3700779
7.138                0.995857149      -15.391494
7.14                 0.995852881     -15.4129413
7.142                0.995848583     -15.4344199
7.144                0.995844254     -15.4559299
7.146                0.995839894     -15.4774713
7.148                0.995835503     -15.4990443
7.15                 0.995831081      -15.520649
7.152                0.995826628     -15.5422854
7.154                0.995822144     -15.5639537
7.156                0.995817629     -15.5856539
7.158                0.995813082     -15.6073861
7.16                 0.995808505     -15.6291505
7.162                0.995803896      -15.650947
7.164                0.995799255     -15.6727759
7.166                0.995794584     -15.6946371
7.168                 0.99578988     -15.7165309
7.17                 0.995785145     -15.7384572
7.172                0.995780379     -15.7604163
7.174                0.995775581     -15.7824081
7.176                0.995770751     -15.8044328
7.178                0.995765889     -15.8264904
7.18                 0.995760996     -15.8485811
7.182                 0.99575607      -15.870705
7.184                0.995751113     -15.8928622
7.186                0.995746123     -15.9150527
7.188                0.995741101     -15.9372767
7.19                 0.995736048     -15.9595342
7.192                0.995730962     -15.9818254
7.194                0.995725843     -16.0041503
7.196                0.995720693     -16.0265091
7.198                0.995715509     -16.0489018
7.2                  0.995710294     -16.0713286
7.202                0.995705045     -16.0937895
7.204                0.995699764     -16.1162847
7.206                0.995694451     -16.1388142
7.208                0.995689105     -16.1613782
7.21                 0.995683725     -16.1839768
7.212                0.995678313       -16.20661
7.214                0.995672868      -16.229278
7.216                 0.99566739     -16.2519809
7.218                0.995661879     -16.2747187
7.22                 0.995656334     -16.2974916
7.222                0.995650756     -16.3202996
7.224                0.995645145      -16.343143
7.226                0.995639501     -16.3660218
7.228                0.995633823      -16.388936
7.23                 0.995628112     -16.4118859
7.232                0.995622367     -16.4348714
7.234                0.995616588     -16.4578928
7.236                0.995610775     -16.4809501
7.238                0.995604929     -16.5040434
7.24                 0.995599048     -16.5271729
7.242                0.995593134     -16.5503386
7.244                0.995587186     -16.5735407
7.246                0.995581203     -16.5967792
7.248                0.995575187     -16.6200543
7.25                 0.995569136     -16.6433661
7.252                 0.99556305     -16.6667147
7.254                 0.99555693     -16.6901002
7.256                0.995550776     -16.7135227
7.258                0.995544587     -16.7369823
7.26                 0.995538363     -16.7604792
7.262                0.995532105     -16.7840135
7.264                0.995525811     -16.8075852
7.266                0.995519483     -16.8311945
7.268                 0.99551312     -16.8548415
7.27                 0.995506722     -16.8785263
7.272                0.995500288     -16.9022491
7.274                0.995493819     -16.9260098
7.276                0.995487315     -16.9498088
7.278                0.995480776      -16.973646
7.28                   0.9954742     -16.9975216
7.282                 0.99546759     -17.0214358
7.284                0.995460943     -17.0453885
7.286                0.995454261       -17.06938
7.288                0.995447543     -17.0934104
7.29                 0.995440789     -17.1174798
7.292                0.995433999     -17.1415882
7.294                0.995427173     -17.1657359
7.296                0.995420311     -17.1899229
7.298                0.995413412     -17.2141495
7.3                  0.995406477     -17.2384155
7.302                0.995399506     -17.2627214
7.304                0.995392498      -17.287067
7.306                0.995385453     -17.3114526
7.308                0.995378371     -17.3358783
7.31                 0.995371253     -17.3603442
7.312                0.995364098     -17.3848504
7.314                0.995356905     -17.4093971
7.316                0.995349676     -17.4339843
7.318                0.995342409     -17.4586123
7.32                 0.995335105     -17.4832811
7.322                0.995327763     -17.5079909
7.324                0.995320384     -17.5327417
7.326                0.995312968     -17.5575338
7.328                0.995305513     -17.5823672
7.33                 0.995298021     -17.6072421
7.332                0.995290491     -17.6321586
7.334                0.995282923     -17.6571169
7.336                0.995275317      -17.682117
7.338                0.995267672     -17.7071591
7.34                  0.99525999     -17.7322434
7.342                0.995252268     -17.7573699
7.344                0.995244509     -17.7825388
7.346                 0.99523671     -17.8077502
7.348                0.995228873     -17.8330043
7.35                 0.995220997     -17.8583012
7.352                0.995213083     -17.8836411
7.354                0.995205129      -17.909024
7.356                0.995197136     -17.9344501
7.358                0.995189103     -17.9599196
7.36                 0.995181031     -17.9854325
7.362                 0.99517292     -18.0109891
7.364                0.995164769     -18.0365894
7.366                0.995156579     -18.0622337
7.368                0.995148349     -18.0879219
7.37                 0.995140078     -18.1136544
7.372                0.995131768     -18.1394311
7.374                0.995123417     -18.1652524
7.376                0.995115027     -18.1911182
7.378                0.995106596     -18.2170288
7.38                 0.995098124     -18.2429843
7.382                0.995089612     -18.2689848
7.384                0.995081059     -18.2950305
7.386                0.995072465     -18.3211215
7.388                 0.99506383      -18.347258
7.39                 0.995055154     -18.3734401
7.392                0.995046437     -18.3996679
7.394                0.995037678     -18.4259417
7.396                0.995028879     -18.4522616
7.398                0.995020037     -18.4786276
7.4                  0.995011154       -18.50504
7.402                0.995002229     -18.5314989
7.404                0.994993262     -18.5580045
7.406                0.994984253     -18.5845569
7.408                0.994975202     -18.6111562
7.41                 0.994966108     -18.6378027
7.412                0.994956972     -18.6644964
7.414                0.994947793     -18.6912376
7.416                0.994938572     -18.7180263
7.418                0.994929308     -18.7448628
7.42                 0.994920001     -18.7717471
7.422                0.994910651     -18.7986795
7.424                0.994901257     -18.8256602
7.426                 0.99489182     -18.8526891
7.428                 0.99488234     -18.8797666
7.43                 0.994872816     -18.9068928
7.432                0.994863248     -18.9340678
7.434                0.994853637     -18.9612918
7.436                0.994843981      -18.988565
7.438                0.994834281     -19.0158875
7.44                 0.994824537     -19.0432595
7.442                0.994814748     -19.0706811
7.444                0.994804915     -19.0981525
7.446                0.994795037      -19.125674
7.448                0.994785114     -19.1532455
7.45                 0.994775146     -19.1808674
7.452                0.994765133     -19.2085398
7.454                0.994755074     -19.2362628
7.456                0.994744971     -19.2640366
7.458                0.994734821     -19.2918614
7.46                 0.994724626     -19.3197374
7.462                0.994714384     -19.3476647
7.464                0.994704097     -19.3756435
7.466                0.994693764      -19.403674
7.468                0.994683384     -19.4317563
7.47                 0.994672958     -19.4598906
7.472                0.994662484     -19.4880771
7.474                0.994651965      -19.516316
7.476                0.994641398     -19.5446074
7.478                0.994630784     -19.5729515
7.48                 0.994620122     -19.6013486
7.482                0.994609414     -19.6297987
7.484                0.994598657      -19.658302
7.486                0.994587853     -19.6868588
7.488                0.994577001     -19.7154693
7.49                 0.994566101     -19.7441335
7.492                0.994555153     -19.7728517
7.494                0.994544156      -19.801624
7.496                 0.99453311     -19.8304507
7.498                0.994522016     -19.8593319
7.5                  0.994510873     -19.8882679
7.502                0.994499681     -19.9172587
7.504                0.994488439     -19.9463047
7.506                0.994477148     -19.9754059
7.508                0.994465808     -20.0045626
7.51                 0.994454417      -20.033775
7.512                0.994442977     -20.0630432
7.514                0.994431487     -20.0923674
7.516                0.994419946     -20.1217479
7.518                0.994408355     -20.1511848
7.52                 0.994396713     -20.1806783
7.522                 0.99438502     -20.2102286
7.524                0.994373277     -20.2398359
7.526                0.994361482     -20.2695005
7.528                0.994349635     -20.2992224
7.53                 0.994337737      -20.329002
7.532                0.994325788     -20.3588394
7.534                0.994313786     -20.3887347
7.536                0.994301733     -20.4186883
7.538                0.994289627     -20.4487003
7.54                 0.994277468     -20.4787709
7.542                0.994265257     -20.5089003
7.544                0.994252993     -20.5390887
7.546                0.994240675     -20.5693363
7.548                0.994228305     -20.5996434
7.55                 0.994215881     -20.6300101
7.552                0.994203403     -20.6604367
7.554                0.994190872     -20.6909233
7.556                0.994178286     -20.7214702
7.558                0.994165646     -20.7520776
7.56                 0.994152952     -20.7827456
7.562                0.994140203     -20.8134746
7.564                0.994127399     -20.8442647
7.566                 0.99411454     -20.8751161
7.568                0.994101626     -20.9060291
7.57                 0.994088656     -20.9370039
7.572                 0.99407563     -20.9680406
7.574                0.994062549     -20.9991395
7.576                0.994049411     -21.0303009
7.578                0.994036217      -21.061525
7.58                 0.994022967     -21.0928119
7.582                0.994009659     -21.1241619
7.584                0.993996295     -21.1555752
7.586                0.993982874      -21.187052
7.588                0.993969395     -21.2185927
7.59                 0.993955858     -21.2501973
7.592                0.993942263     -21.2818662
7.594                0.993928611     -21.3135995
7.596                  0.9939149     -21.3453976
7.598                 0.99390113     -21.3772605
7.6                  0.993887302     -21.4091886
7.602                0.993873414     -21.4411821
7.604                0.993859467     -21.4732412
7.606                0.993845461     -21.5053662
7.608                0.993831395     -21.5375573
7.61                 0.993817269     -21.5698148
7.612                0.993803083     -21.6021388
7.614                0.993788837     -21.6345296
7.616                0.993774529     -21.6669875
7.618                0.993760161     -21.6995127
7.62                 0.993745732     -21.7321055
7.622                0.993731241      -21.764766
7.624                0.993716688     -21.7974946
7.626                0.993702074     -21.8302915
7.628                0.993687397     -21.8631569
7.63                 0.993672658     -21.8960911
7.632                0.993657856     -21.9290944
7.634                0.993642991     -21.9621669
7.636                0.993628064      -21.995309
7.638                0.993613072     -22.0285209
7.64                 0.993598017     -22.0618029
7.642                0.993582898     -22.0951552
7.644                0.993567715     -22.1285781
7.646                0.993552467     -22.1620718
7.648                0.993537154     -22.1956366
7.65                 0.993521776     -22.2292727
7.652                0.993506333     -22.2629805
7.654                0.993490825     -22.2967602
7.656                 0.99347525      -22.330612
7.658                0.993459609     -22.3645363
7.66                 0.993443902     -22.3985332
7.662                0.993428129     -22.4326032
7.664                0.993412288     -22.4667463
7.666                 0.99339638      -22.500963
7.668                0.993380404     -22.5352534
7.67                 0.993364361     -22.5696179
7.672                0.993348249     -22.6040568
7.674                0.993332069     -22.6385703
7.676                 0.99331582     -22.6731586
7.678                0.993299502     -22.7078222
7.68                 0.993283115     -22.7425611
7.682                0.993266658     -22.7773759
7.684                0.993250132     -22.8122666
7.686                0.993233535     -22.8472337
7.688                0.993216867     -22.8822774
7.69                 0.993200129      -22.917398
7.692                 0.99318332     -22.9525957
7.694                0.993166439      -22.987871
7.696                0.993149486      -23.023224
7.698                0.993132461      -23.058655
7.7                  0.993115364     -23.0941645
7.702                0.993098194     -23.1297526
7.704                0.993080951     -23.1654196
7.706                0.993063635     -23.2011659
7.708                0.993046245     -23.2369918
7.71                 0.993028781     -23.2728976
7.712                0.993011243     -23.3088835
7.714                 0.99299363     -23.3449499
7.716                0.992975942     -23.3810971
7.718                0.992958178     -23.4173254
7.72                 0.992940339     -23.4536351
7.722                0.992922424     -23.4900265
7.724                0.992904432        -23.5265
7.726                0.992886364     -23.5630558
7.728                0.992868219     -23.5996944
7.73                 0.992849996     -23.6364159
7.732                0.992831695     -23.6732207
7.734                0.992813316     -23.7101092
7.736                0.992794859     -23.7470816
7.738                0.992776323     -23.7841384
7.74                 0.992757708     -23.8212798
7.742                0.992739013     -23.8585061
7.744                0.992720238     -23.8958177
7.746                0.992701383     -23.9332149
7.748                0.992682447     -23.9706981
7.75                  0.99266343     -24.0082675
7.752                0.992644332     -24.0459236
7.754                0.992625151     -24.0836667
7.756                0.992605889      -24.121497
7.758                0.992586544      -24.159415
7.76                 0.992567116     -24.1974211
7.762                0.992547604     -24.2355154
7.764                0.992528009     -24.2736985
7.766                 0.99250833     -24.3119706
7.768                0.992488566     -24.3503321
7.77                 0.992468717     -24.3887833
7.772                0.992448783     -24.4273247
7.774                0.992428763     -24.4659565
7.776                0.992408657     -24.5046792
7.778                0.992388464      -24.543493
7.78                 0.992368184     -24.5823984
7.782                0.992347817     -24.6213958
7.784                0.992327362     -24.6604854
7.786                0.992306818     -24.6996676
7.788                0.992286186     -24.7389429
7.79                 0.992265465     -24.7783116
7.792                0.992244654     -24.8177741
7.794                0.992223753     -24.8573307
7.796                0.992202762     -24.8969819
7.798                 0.99218168      -24.936728
7.8                  0.992160507     -24.9765693
7.802                0.992139241     -25.0165064
7.804                0.992117884     -25.0565395
7.806                0.992096434     -25.0966691
7.808                0.992074891     -25.1368956
7.81                 0.992053254     -25.1772192
7.812                0.992031523     -25.2176406
7.814                0.992009697     -25.2581599
7.816                0.991987777     -25.2987777
7.818                0.991965761     -25.3394944
7.82                 0.991943649     -25.3803103
7.822                0.991921441     -25.4212258
7.824                0.991899136     -25.4622414
7.826                0.991876733     -25.5033575
7.828                0.991854233     -25.5445745
7.83                 0.991831634     -25.5858928
7.832                0.991808936     -25.6273127
7.834                0.991786139     -25.6688349
7.836                0.991763242     -25.7104595
7.838                0.991740245     -25.7521872
7.84                 0.991717147     -25.7940183
7.842                0.991693947     -25.8359532
7.844                0.991670646     -25.8779924
7.846                0.991647242     -25.9201363
7.848                0.991623735     -25.9623853
7.85                 0.991600124     -26.0047399
7.852                 0.99157641     -26.0472005
7.854                0.991552591     -26.0897676
7.856                0.991528667     -26.1324416
7.858                0.991504637      -26.175223
7.86                 0.991480501     -26.2181121
7.862                0.991456258     -26.2611095
7.864                0.991431908     -26.3042157
7.866                 0.99140745      -26.347431
7.868                0.991382884     -26.3907559
7.87                 0.991358209     -26.4341909
7.872                0.991333424     -26.4777365
7.874                0.991308529     -26.5213931
7.876                0.991283523     -26.5651612
7.878                0.991258406     -26.6090413
7.88                 0.991233177     -26.6530339
7.882                0.991207835     -26.6971393
7.884                0.991182381     -26.7413582
7.886                0.991156813      -26.785691
7.888                 0.99113113     -26.8301381
7.89                 0.991105333     -26.8747001
7.892                 0.99107942     -26.9193775
7.894                0.991053391     -26.9641708
7.896                0.991027245     -27.0090803
7.898                0.991000982     -27.0541068
7.9                  0.990974601     -27.0992506
7.902                0.990948101     -27.1445122
7.904                0.990921482     -27.1898923
7.906                0.990894743     -27.2353912
7.908                0.990867883     -27.2810095
7.91                 0.990840903     -27.3267477
7.912                  0.9908138     -27.3726064
7.914                0.990786575      -27.418586
7.916                0.990759226     -27.4646871
7.918                0.990731754     -27.5109102
7.92                 0.990704157     -27.5572559
7.922                0.990676435     -27.6037247
7.924                0.990648587      -27.650317
7.926                0.990620612     -27.6970336
7.928                 0.99059251     -27.7438748
7.93                  0.99056428     -27.7908413
7.932                0.990535921     -27.8379336
7.934                0.990507432     -27.8851523
7.936                0.990478814     -27.9324979
7.938                0.990450064      -27.979971
7.94                 0.990421183     -28.0275721
7.942                 0.99039217     -28.0753018
7.944                0.990363023     -28.1231607
7.946                0.990333743     -28.1711494
7.948                0.990304328     -28.2192684
7.95                 0.990274777     -28.2675183
7.952                0.990245091     -28.3158997
7.954                0.990215267     -28.3644131
7.956                0.990185306     -28.4130593
7.958                0.990155207     -28.4618387
7.96                 0.990124968      -28.510752
7.962                0.990094589     -28.5597997
7.964                0.990064069     -28.6089826
7.966                0.990033408      -28.658301
7.968                0.990002604     -28.7077558
7.97                 0.989971657     -28.7573475
7.972                0.989940566     -28.8070767
7.974                 0.98990933     -28.8569441
7.976                0.989877949     -28.9069502
7.978                 0.98984642     -28.9570957
7.98                 0.989814745     -29.0073813
7.982                0.989782921     -29.0578075
7.984                0.989750948     -29.1083751
7.986                0.989718825     -29.1590846
7.988                0.989686551     -29.2099367
7.99                 0.989654125     -29.2609321
7.992                0.989621547     -29.3120714
7.994                0.989588815     -29.3633553
7.996                0.989555929     -29.4147844
7.998                0.989522887     -29.4663594
8                    0.989489689      -29.518081
8.002                0.989456334     -29.5699499
8.004                0.989422821     -29.6219667
8.006                0.989389149     -29.6741321
8.008                0.989355317     -29.7264468
8.01                 0.989321324     -29.7789116
8.012                0.989287169      -29.831527
8.014                0.989252851     -29.8842939
8.016                 0.98921837     -29.9372128
8.018                0.989183724     -29.9902846
8.02                 0.989148912     -30.0435099
8.022                0.989113933     -30.0968895
8.024                0.989078787      -30.150424
8.026                0.989043472     -30.2041143
8.028                0.989007987     -30.2579609
8.03                 0.988972331     -30.3119648
8.032                0.988936504     -30.3661265
8.034                0.988900503      -30.420447
8.036                0.988864329     -30.4749268
8.038                 0.98882798     -30.5295668
8.04                 0.988791454     -30.5843677
8.042                0.988754752     -30.6393303
8.044                0.988717872     -30.6944553
8.046                0.988680812     -30.7497436
8.048                0.988643572     -30.8051959
8.05                  0.98860615     -30.8608129
8.052                0.988568546     -30.9165956
8.054                0.988530758     -30.9725446
8.056                0.988492786     -31.0286607
8.058                0.988454627     -31.0849449
8.06                 0.988416282     -31.1413978
8.062                0.988377748     -31.1980203
8.064                0.988339024     -31.2548132
8.066                 0.98830011     -31.3117774
8.068                0.988261005     -31.3689136
8.07                 0.988221706     -31.4262227
8.072                0.988182213     -31.4837055
8.074                0.988142525     -31.5413629
8.076                 0.98810264     -31.5991957
8.078                0.988062557     -31.6572048
8.08                 0.988022275     -31.7153911
8.082                0.987981793     -31.7737553
8.084                 0.98794111     -31.8322985
8.086                0.987900223     -31.8910213
8.088                0.987859132     -31.9499248
8.09                 0.987817836     -32.0090099
8.092                0.987776333     -32.0682773
8.094                0.987734622     -32.1277281
8.096                0.987692701      -32.187363
8.098                 0.98765057     -32.2471832
8.1                  0.987608227     -32.3071893
8.102                 0.98756567     -32.3673824
8.104                0.987522899     -32.4277634
8.106                0.987479911     -32.4883333
8.108                0.987436706     -32.5490929
8.11                 0.987393282     -32.6100433
8.112                0.987349638     -32.6711853
8.114                0.987305772     -32.7325199
8.116                0.987261682     -32.7940482
8.118                0.987217368      -32.855771
8.12                 0.987172828     -32.9176893
8.122                0.987128061     -32.9798042
8.124                0.987083064     -33.0421166
8.126                0.987037836     -33.1046275
8.128                0.986992377     -33.1673379
8.13                 0.986946684     -33.2302489
8.132                0.986900756     -33.2933614
8.134                0.986854592     -33.3566765
8.136                0.986808189     -33.4201952
8.138                0.986761546     -33.4839185
8.14                 0.986714662     -33.5478475
8.142                0.986667536     -33.6119832
8.144                0.986620164     -33.6763267
8.146                0.986572547     -33.7408791
8.148                0.986524682     -33.8056413
8.15                 0.986476567     -33.8706146
8.152                0.986428201        -33.9358
8.154                0.986379583     -34.0011986
8.156                 0.98633071     -34.0668114
8.158                0.986281581     -34.1326397
8.16                 0.986232194     -34.1986844
8.162                0.986182547     -34.2649468
8.164                 0.98613264     -34.3314279
8.166                0.986082469      -34.398129
8.168                0.986032033      -34.465051
8.17                 0.985981331     -34.5321953
8.172                 0.98593036     -34.5995629
8.174                0.985879119     -34.6671551
8.176                0.985827606      -34.734973
8.178                0.985775819     -34.8030177
8.18                 0.985723757     -34.8712906
8.182                0.985671416     -34.9397927
8.184                0.985618796     -35.0085253
8.186                0.985565895     -35.0774896
8.188                 0.98551271     -35.1466868
8.19                  0.98545924     -35.2161183
8.192                0.985405483     -35.2857851
8.194                0.985351436     -35.3556886
8.196                0.985297099       -35.42583
8.198                0.985242468     -35.4962106
8.2                  0.985187541     -35.5668317