! TOUCHSTONE file generated by CST DESIGN STUDIO
! Date and time: Mon Feb 10 16:45:22 2025
! Project name: C:\Work\MatlabApps\UnitCellType2OptimizationMatlab\CST\unitcell.cst
! Tree item: Tasks\Sweep1\SPara1\S-Parameters
! Header version: 2024
! Port assignment regex: !\s*Touchstone port\s*([0-9]+)\s*=\s*(CST MWS port|CST DES external port|CST DES block port)\s*(.+)\s* \(\"(.*)\"\)(\s*mode\s*([0-9]+))?.*
! Touchstone port assignment:
! Touchstone port 1 = CST DES external port 1 ("")
# GHz S MA R 50
7                    0.995175487     -13.2607765
7.002                0.995158312     -13.2785145
7.004                0.995141104     -13.2962529
7.006                0.995123861     -13.3139917
7.008                0.995106583     -13.3317308
7.01                 0.995091865     -13.3494854
7.012                0.995077117     -13.3672404
7.014                0.995062341     -13.3849958
7.016                0.995047536     -13.4027515
7.018                0.995035424      -13.420542
7.02                  0.99502329     -13.4383328
7.022                0.995011133     -13.4561239
7.024                0.994998952     -13.4739154
7.026                0.994989513     -13.4917627
7.028                0.994980056     -13.5096103
7.03                 0.994970582     -13.5274583
7.032                0.994961091     -13.5453066
7.034                0.994954372     -13.5632317
7.036                0.994947642     -13.5811572
7.038                  0.9949409     -13.5990829
7.04                 0.994934147     -13.6170089
7.042                0.994930147     -13.6350327
7.044                0.994926141     -13.6530567
7.046                0.994922129      -13.671081
7.048                0.994918112     -13.6891056
7.05                 0.994916804     -13.7072473
7.052                0.994915495     -13.7253894
7.054                0.994914187     -13.7435316
7.056                0.994912879     -13.7616742
7.058                0.994914173     -13.7799545
7.06                 0.994915472     -13.7982351
7.062                0.994916778      -13.816516
7.064                 0.99491809      -13.834797
7.066                0.994921881     -13.8532375
7.068                0.994925683     -13.8716781
7.07                 0.994929496     -13.8901189
7.072                0.994933322     -13.9085599
7.074                0.994939454     -13.9271769
7.076                0.994945603      -13.945794
7.078                0.994951769     -13.9644114
7.08                 0.994957952     -13.9830288
7.082                0.994966225     -14.0018406
7.084                0.994974521     -14.0206526
7.086                0.994982838     -14.0394646
7.088                0.994991178     -14.0582767
7.09                 0.995001388     -14.0772968
7.092                0.995011625     -14.0963169
7.094                0.995021889     -14.1153371
7.096                0.995032181     -14.1343574
7.098                0.995044062     -14.1536063
7.1                  0.995055976     -14.1728553
7.102                0.995067921     -14.1921043
7.104                0.995079898     -14.2113534
7.106                0.995093171     -14.2308361
7.108                0.995106479     -14.2503188
7.11                 0.995119824     -14.2698014
7.112                0.995133204      -14.289284
7.114                0.995147567     -14.3090166
7.116                0.995161969     -14.3287491
7.118                0.995176412     -14.3484815
7.12                 0.995190894     -14.3682138
7.122                0.995206036     -14.3881971
7.124                 0.99522122     -14.4081802
7.126                0.995236448     -14.4281632
7.128                0.995251719     -14.4481461
7.13                 0.995267304     -14.4683904
7.132                0.995282935     -14.4886346
7.134                0.995298612     -14.5088785
7.136                0.995314335     -14.5291224
7.138                0.995330041     -14.5496294
7.14                 0.995345795     -14.5701362
7.142                0.995361597     -14.5906429
7.144                0.995377446     -14.6111494
7.146                0.995392952      -14.631918
7.148                0.995408506     -14.6526864
7.15                  0.99542411     -14.6734546
7.152                0.995439763     -14.6942227
7.154                0.995454762     -14.7152506
7.156                 0.99546981     -14.7362784
7.158                0.995484909     -14.7573059
7.16                 0.995500057     -14.7783333
7.162                0.995514244     -14.7996166
7.164                0.995528482     -14.8208997
7.166                0.995542768     -14.8421827
7.168                0.995557105     -14.8634655
7.17                 0.995570205     -14.8850019
7.172                0.995583354     -14.9065382
7.174                0.995596551     -14.9280743
7.176                0.995609797     -14.9496104
7.178                0.995621567     -14.9713878
7.18                 0.995633383     -14.9931651
7.182                0.995645247     -15.0149423
7.184                0.995657158     -15.0367195
7.186                0.995667356     -15.0587287
7.188                0.995677598      -15.080738
7.19                 0.995687885     -15.1027472
7.192                0.995698216     -15.1247563
7.194                0.995706619     -15.1469896
7.196                0.995715063     -15.1692229
7.198                0.995723548     -15.1914562
7.2                  0.995732073     -15.2136896
7.202                0.995738502     -15.2361352
7.204                0.995744967     -15.2585809
7.206                0.995751469     -15.2810267
7.208                0.995758008     -15.3034726
7.21                  0.99576231      -15.326121
7.212                0.995766644     -15.3487696
7.214                 0.99577101     -15.3714183
7.216                0.995775408     -15.3940672
7.218                0.995777422     -15.4169014
7.22                 0.995779462     -15.4397357
7.222                0.995781529     -15.4625703
7.224                0.995783621     -15.4854051
7.226                0.995783257     -15.5084139
7.228                0.995782913     -15.5314229
7.23                 0.995782588     -15.5544321
7.232                0.995782284     -15.5774416
7.234                0.995779443      -15.600607
7.236                0.995776616     -15.6237726
7.238                0.995773802     -15.6469386
7.24                 0.995771002     -15.6701048
7.242                0.995765646     -15.6934145
7.244                0.995760297     -15.7167245
7.246                0.995754954     -15.7400349
7.248                0.995749618     -15.7633456
7.25                 0.995741725     -15.7867855
7.252                0.995733831     -15.8102257
7.254                0.995725937     -15.8336664
7.256                0.995718042     -15.8571074
7.258                0.995707634     -15.8806568
7.26                 0.995697218     -15.9042066
7.262                0.995686794     -15.9277568
7.264                0.995676363     -15.9513075
7.266                0.995663495     -15.9749541
7.268                0.995650614     -15.9986011
7.27                 0.995637718     -16.0222485
7.272                0.995624807     -16.0458964
7.274                0.995609586     -16.0696223
7.276                0.995594345     -16.0933487
7.278                0.995579082     -16.1170755
7.28                 0.995563798     -16.1408028
7.282                0.995546364     -16.1645962
7.284                0.995528903     -16.1883901
7.286                0.995511414     -16.2121844
7.288                0.995493898     -16.2359792
7.29                 0.995474435     -16.2598252
7.292                0.995454939     -16.2836716
7.294                 0.99543541     -16.3075185
7.296                0.995415848     -16.3313658
7.298                0.995394561     -16.3552547
7.3                  0.995373235      -16.379144
7.302                0.995351871     -16.4030337
7.304                0.995330469     -16.4269239
7.306                0.995307622     -16.4508418
7.308                0.995284732     -16.4747601
7.31                 0.995261799     -16.4986788
7.312                0.995238824     -16.5225979
7.314                0.995214673     -16.5465405
7.316                0.995190476     -16.5704835
7.318                0.995166233     -16.5944269
7.32                 0.995141944     -16.6183707
7.322                0.995116767     -16.6423348
7.324                0.995091541     -16.6662992
7.326                0.995066266      -16.690264
7.328                0.995040943     -16.7142291
7.33                 0.995015034     -16.7382078
7.332                0.994989073     -16.7621868
7.334                0.994963063     -16.7861661
7.336                0.994937002     -16.8101458
7.338                0.994910647     -16.8341438
7.34                 0.994884241     -16.8581421
7.342                0.994857784     -16.8821407
7.344                0.994831276     -16.9061395
7.346                0.994804759     -16.9301535
7.348                 0.99477819     -16.9541677
7.35                  0.99475157     -16.9781821
7.352                0.994724899     -17.0021967
7.354                0.994698486     -17.0262364
7.356                0.994672022     -17.0502762
7.358                0.994645507     -17.0743162
7.36                 0.994618942     -17.0983564
7.362                0.994592906     -17.1224234
7.364                0.994566821     -17.1464905
7.366                0.994540686     -17.1705578
7.368                0.994514502     -17.1946251
7.37                 0.994489075     -17.2187278
7.372                0.994463601     -17.2428306
7.374                0.994438078     -17.2669334
7.376                0.994412508     -17.2910363
7.378                0.994387923      -17.315185
7.38                 0.994363292     -17.3393337
7.382                0.994338615     -17.3634824
7.384                0.994313894     -17.3876312
7.386                0.994290358     -17.4118294
7.388                 0.99426678     -17.4360276
7.39                 0.994243159     -17.4602258
7.392                0.994219496      -17.484424
7.394                0.994197216     -17.5086882
7.396                0.994174898     -17.5329524
7.398                 0.99415254     -17.5572166
7.4                  0.994130143     -17.5814808
7.402                0.994109282     -17.6058223
7.404                0.994088386     -17.6301637
7.406                0.994067455     -17.6545051
7.408                0.994046488     -17.6788464
7.41                 0.994027251     -17.7032737
7.412                0.994007983     -17.7277008
7.414                0.993988684     -17.7521279
7.416                0.993969353     -17.7765549
7.418                0.993951882     -17.8010852
7.42                 0.993934384     -17.8256154
7.422                 0.99391686     -17.8501455
7.424                0.993899309     -17.8746755
7.426                0.993883739     -17.8993233
7.428                0.993868147     -17.9239709
7.43                 0.993852533     -17.9486184
7.432                0.993836897     -17.9732659
7.434                0.993823338     -17.9980494
7.436                0.993809762     -18.0228328
7.438                0.993796169     -18.0476161
7.44                 0.993782559     -18.0723993
7.442                 0.99377111     -18.0973338
7.444                0.993759649     -18.1222681
7.446                0.993748177     -18.1472023
7.448                0.993736692     -18.1721364
7.45                 0.993727387     -18.1972425
7.452                0.993718076     -18.2223484
7.454                0.993708757     -18.2474541
7.456                0.993699433     -18.2725596
7.458                0.993692285     -18.2978535
7.46                 0.993685136     -18.3231472
7.462                0.993677986     -18.3484406
7.464                0.993670834     -18.3737339
7.466                 0.99366582     -18.3992404
7.468                0.993660811     -18.4247467
7.47                 0.993655805     -18.4502528
7.472                0.993650803     -18.4757586
7.474                0.993647823     -18.5014951
7.476                0.993644851     -18.5272313
7.478                0.993641889     -18.5529673
7.48                 0.993638936      -18.578703
7.482                0.993637864     -18.6046901
7.484                0.993636807     -18.6306769
7.486                0.993635764     -18.6566634
7.488                0.993634735     -18.6826495
7.49                 0.993635415     -18.7089007
7.492                0.993636115     -18.7351514
7.494                0.993636833     -18.7614018
7.496                0.993637571     -18.7876519
7.498                0.993639788      -18.814184
7.5                  0.993642028     -18.8407158
7.502                0.993644292     -18.8672471
7.504                0.993646579     -18.8937781
7.506                0.993650096     -18.9206083
7.508                 0.99365364     -18.9474382
7.51                 0.993657212     -18.9742676
7.512                0.993660811     -19.0010966
7.514                0.993665379     -19.0282319
7.516                0.993669978     -19.0553668
7.518                0.993674607     -19.0825012
7.52                 0.993679266     -19.1096352
7.522                 0.99368462     -19.1370865
7.524                0.993690007     -19.1645373
7.526                0.993695428     -19.1919877
7.528                0.993700882     -19.2194376
7.53                 0.993706761      -19.247213
7.532                0.993712676     -19.2749879
7.534                0.993718627     -19.3027623
7.536                0.993724613     -19.3305362
7.538                0.993730755     -19.3586347
7.54                 0.993736935     -19.3867327
7.542                0.993743151     -19.4148301
7.544                0.993749406      -19.442927
7.546                0.993755559     -19.4713573
7.548                0.993761751     -19.4997871
7.55                 0.993767981     -19.5282163
7.552                 0.99377425      -19.556645
7.554                0.993780188     -19.5854064
7.556                0.993786165     -19.6141673
7.558                0.993792182     -19.6429277
7.56                 0.993798238     -19.6716875
7.562                0.993803728     -19.7007822
7.564                0.993809258     -19.7298763
7.566                0.993814827     -19.7589699
7.568                0.993820434      -19.788063
7.57                 0.993825279     -19.8174859
7.572                0.993830161     -19.8469083
7.574                0.993835082     -19.8763301
7.576                0.993840041     -19.9057514
7.578                0.993844012     -19.9355087
7.58                 0.993848019     -19.9652655
7.582                0.993852063     -19.9950218
7.584                0.993856144     -20.0247776
7.586                 0.99385906     -20.0548615
7.588                0.993862011     -20.0849448
7.59                 0.993864996     -20.1150277
7.592                0.993868017       -20.14511
7.594                0.993869686      -20.175522
7.596                0.993871387     -20.2059334
7.598                0.993873121     -20.2363443
7.6                  0.993874887     -20.2667546
7.602                0.993875101     -20.2974883
7.604                0.993875345     -20.3282215
7.606                0.993875617     -20.3589541
7.608                0.993875918     -20.3896863
7.61                 0.993874496     -20.4207374
7.612                  0.9938731     -20.4517881
7.614                0.993871728     -20.4828383
7.616                0.993870381     -20.5138879
7.618                 0.99386712     -20.5452538
7.62                 0.993863878     -20.5766192
7.622                0.993860657     -20.6079841
7.624                0.993857456     -20.6393484
7.626                0.993852216     -20.6710205
7.628                0.993846992     -20.7026921
7.63                 0.993841782     -20.7343631
7.632                0.993836588     -20.7660336
7.634                0.993829176     -20.7979989
7.636                0.993821773     -20.8299636
7.638                0.993814379     -20.8619278
7.64                 0.993806994     -20.8938916
7.642                0.993797312     -20.9261425
7.644                0.993787633     -20.9583929
7.646                0.993777957     -20.9906428
7.648                0.993768283     -21.0228921
7.65                 0.993756213     -21.0554139
7.652                0.993744138     -21.0879351
7.654                0.993732061     -21.1204557
7.656                0.993719979     -21.1529758
7.658                0.993705475     -21.1857576
7.66                  0.99369096     -21.2185388
7.662                0.993676435     -21.2513195
7.664                0.993661899     -21.2840995
7.666                0.993644995     -21.3171273
7.668                0.993628074     -21.3501545
7.67                 0.993611135     -21.3831811
7.672                 0.99359418      -21.416207
7.674                0.993574865     -21.4494646
7.676                0.993555527     -21.4827215
7.678                0.993536165     -21.5159778
7.68                 0.993516779     -21.5492334
7.682                0.993495188     -21.5827103
7.684                0.993473567     -21.6161866
7.686                0.993451917     -21.6496621
7.688                0.993430236      -21.683137
7.69                 0.993406476     -21.7168191
7.692                 0.99338268     -21.7505005
7.694                0.993358848     -21.7841811
7.696                0.993334981     -21.8178609
7.698                0.993309257     -21.8517429
7.7                  0.993283492      -21.885624
7.702                0.993257687     -21.9195044
7.704                 0.99323184     -21.9533838
7.706                0.993204338     -21.9874559
7.708                 0.99317679     -22.0215271
7.71                 0.993149196     -22.0555973
7.712                0.993121557     -22.0896667
7.714                 0.99309252     -22.1239231
7.716                0.993063434     -22.1581786
7.718                0.993034299     -22.1924331
7.72                 0.993005113     -22.2266867
7.722                0.992974755     -22.2611226
7.724                0.992944344     -22.2955576
7.726                 0.99291388     -22.3299914
7.728                0.992883364     -22.3644241
7.73                 0.992851932     -22.3990416
7.732                0.992820444     -22.4336579
7.734                0.992788901      -22.468273
7.736                0.992757303      -22.502887
7.738                0.992725027     -22.5376906
7.74                 0.992692694      -22.572493
7.742                0.992660304     -22.6072941
7.744                0.992627858     -22.6420939
7.746                0.992594932     -22.6770826
7.748                0.992561948       -22.71207
7.75                 0.992528906     -22.7470559
7.752                0.992495806     -22.7820405
7.754                0.992462482     -22.8172186
7.756                0.992429099     -22.8523952
7.758                0.992395658     -22.8875703
7.76                 0.992362158      -22.922744
7.762                0.992328606       -22.95812
7.764                0.992294995     -22.9934943
7.766                0.992261326     -23.0288671
7.768                0.992227599     -23.0642383
7.77                 0.992193984     -23.0998146
7.772                0.992160312     -23.1353892
7.774                0.992126582     -23.1709622
7.776                0.992092794     -23.2065334
7.778                0.992059331     -23.2423185
7.78                  0.99202581     -23.2781018
7.782                0.991992233     -23.3138834
7.784                0.991958599     -23.3496631
7.786                0.991925497     -23.3856644
7.788                0.991892339     -23.4216638
7.79                 0.991859127     -23.4576613
7.792                 0.99182586     -23.4936569
7.794                0.991793264     -23.5298778
7.796                0.991760614     -23.5660967
7.798                0.991727913     -23.6023136
7.8                  0.991695158     -23.6385285
7.802                0.991663313     -23.6749861
7.804                0.991631418     -23.7114416
7.806                0.991599474     -23.7478951
7.808                0.991567479     -23.7843464
7.81                 0.991536574     -23.8210465
7.812                0.991505623     -23.8577443
7.814                0.991474626       -23.89444
7.816                0.991443581     -23.9311335
7.818                0.991413821     -23.9680871
7.82                 0.991384017     -24.0050386
7.822                0.991354171     -24.0419877
7.824                0.991324282     -24.0789346
7.826                 0.99129588     -24.1161622
7.828                 0.99126744     -24.1533874
7.83                  0.99123896     -24.1906103
7.832                0.991210443     -24.2278309
7.834                0.991183584     -24.2653448
7.836                0.991156691     -24.3028563
7.838                0.991129764     -24.3403654
7.84                 0.991102804      -24.377872
7.842                0.991077641     -24.4156966
7.844                 0.99105245     -24.4535188
7.846                0.991027229     -24.4913384
7.848                 0.99100198     -24.5291556
7.85                 0.990978606     -24.5673099
7.852                0.990955208     -24.6054616
7.854                0.990931787     -24.6436108
7.856                0.990908341     -24.6817574
7.858                0.990886869     -24.7202667
7.86                 0.990865378     -24.7587732
7.862                0.990843869     -24.7972771
7.864                0.990822342     -24.8357784
7.866                0.990802767     -24.8746655
7.868                0.990783179     -24.9135497
7.87                 0.990763579     -24.9524313
7.872                0.990743966       -24.99131
7.874                0.990726255     -25.0306032
7.876                0.990708538     -25.0698936
7.878                0.990690814     -25.1091812
7.88                 0.990673084     -25.1484658
7.882                0.990657124     -25.1881829
7.884                0.990641163     -25.2278971
7.886                0.990625201     -25.2676083
7.888                0.990609238     -25.3073165
7.89                 0.990594929     -25.3474848
7.892                0.990580625       -25.38765
7.894                0.990566324     -25.4278122
7.896                0.990552027     -25.4679713
7.898                0.990539147     -25.5086095
7.9                  0.990526275     -25.5492445
7.902                0.990513411     -25.5898764
7.904                0.990500557      -25.630505
7.906                0.990488908     -25.6716288
7.908                0.990477272     -25.7127492
7.91                 0.990465649     -25.7538663
7.912                0.990454038     -25.7949801
7.914                0.990443385     -25.8366106
7.916                0.990432748     -25.8782377
7.918                0.990422128     -25.9198614
7.92                 0.990411524     -25.9614817
7.922                0.990401679     -26.0036323
7.924                0.990391853     -26.0457793
7.926                0.990382048     -26.0879228
7.928                0.990372262     -26.1300627
7.93                 0.990362945     -26.1727425
7.932                0.990353652     -26.2154186
7.934                 0.99034438      -26.258091
7.936                0.990335131     -26.3007597
7.938                0.990326154     -26.3439816
7.94                 0.990317201     -26.3871996
7.942                0.990308274     -26.4304138
7.944                 0.99029937     -26.4736242
7.946                 0.99029055     -26.5173941
7.948                0.990281756     -26.5611601
7.95                 0.990272988     -26.6049221
7.952                0.990264247     -26.6486802
7.954                0.990255355     -26.6930156
7.956                0.990246491      -26.737347
7.958                0.990237653     -26.7816743
7.96                 0.990228843     -26.8259976
7.962                0.990219678     -26.8709003
7.964                 0.99021054     -26.9157989
7.966                 0.99020143     -26.9606932
7.968                0.990192346     -27.0055834
7.97                 0.990182728     -27.0510644
7.972                0.990173137     -27.0965411
7.974                0.990163573     -27.1420134
7.976                0.990154035     -27.1874815
7.978                0.990143783     -27.2335487
7.98                 0.990133556     -27.2796115
7.982                0.990123355     -27.3256698
7.984                 0.99011318     -27.3717237
7.986                0.990102083     -27.4183917
7.988                0.990091009     -27.4650551
7.99                  0.99007996      -27.511714
7.992                0.990068934     -27.5583683
7.994                0.990056722     -27.6056373
7.996                0.990044532     -27.6529016
7.998                0.990032362     -27.7001611
8                    0.990020214      -27.747416
8.002                0.990006695      -27.795296
8.004                0.989993193     -27.8431712
8.006                0.989979709     -27.8910415
8.008                0.989966243     -27.9389069
8.01                 0.989951098     -27.9874075
8.012                0.989935966     -28.0359032
8.014                0.989920848     -28.0843937
8.016                0.989905744     -28.1328793
8.018                0.989888773     -28.1819976
8.02                 0.989871811     -28.2311107
8.022                0.989854858     -28.2802185
8.024                0.989837914     -28.3293209
8.026                 0.98981881     -28.3790633
8.028                 0.98979971     -28.4288002
8.03                 0.989780613     -28.4785315
8.032                0.989761519     -28.5282575
8.034                0.989740014     -28.5786147
8.036                0.989718506     -28.6289661
8.038                0.989696995     -28.6793117
8.04                 0.989675481     -28.7296516
8.042                0.989651394     -28.7806225
8.044                0.989627297     -28.8315873
8.046                0.989603189      -28.882546
8.048                0.989579072     -28.9334987
8.05                 0.989552182     -28.9850823
8.052                0.989525275     -29.0366596
8.054                0.989498349     -29.0882305
8.056                0.989471406     -29.1397953
8.058                0.989441618      -29.191974
8.06                 0.989411804     -29.2441462
8.062                0.989381964     -29.2963116
8.064                0.989352099     -29.3484704
8.066                0.989319306     -29.4012466
8.068                 0.98928648     -29.4540158
8.07                  0.98925362      -29.506778
8.072                0.989220725     -29.5595333
8.074                0.989184959     -29.6128845
8.076                0.989149152     -29.6662283
8.078                0.989113303     -29.7195647
8.08                 0.989077412     -29.7728938
8.082                0.989038641     -29.8268234
8.084                0.988999821     -29.8807452
8.086                0.988960951     -29.9346593
8.088                0.988922033     -29.9885656
8.09                 0.988880365     -30.0430628
8.092                0.988838639      -30.097552
8.094                0.988796857      -30.152033
8.096                0.988755018      -30.206506
8.098                0.988710622     -30.2615646
8.1                  0.988666161     -30.3166146
8.102                0.988621637     -30.3716562
8.104                0.988577049     -30.4266891
8.106                 0.98853005     -30.4823084
8.108                0.988482981     -30.5379186
8.11                 0.988435842     -30.5935199
8.112                0.988388632     -30.6491123
8.114                0.988339219     -30.7052988
8.116                0.988289729     -30.7614761
8.118                0.988240163      -30.817644
8.12                 0.988190521     -30.8738026
8.122                0.988138889     -30.9305477
8.124                0.988087175      -30.987283
8.126                 0.98803538     -31.0440086
8.128                0.987983504     -31.1007244
8.13                 0.987929813     -31.1580499
8.132                0.987876035     -31.2153654
8.134                 0.98782217     -31.2726708
8.136                0.987768219     -31.3299661
8.138                0.987712723     -31.3878591
8.14                 0.987657136     -31.4457416
8.142                0.987601458     -31.5036136
8.144                0.987545689      -31.561475
8.146                0.987488522     -31.6199603
8.148                0.987431261     -31.6784346
8.15                 0.987373905     -31.7368981
8.152                0.987316454     -31.7953507
8.154                0.987257732     -31.8544376
8.156                0.987198912     -31.9135133
8.158                0.987139993     -31.9725778
8.16                 0.987080975      -32.031631
8.162                0.987020894     -32.0913207
8.164                0.986960711     -32.1509988
8.166                0.986900426     -32.2106651
8.168                 0.98684004     -32.2703198
8.17                 0.986778801     -32.3306332
8.172                0.986717457     -32.3909346
8.174                 0.98665601     -32.4512239
8.176                0.986594459     -32.5115011
8.178                0.986532162     -32.5724361
8.18                 0.986469761     -32.6333584
8.182                0.986407253     -32.6942681
8.184                0.986344641     -32.7551651
8.186                0.986281495     -32.8167414
8.188                0.986218242     -32.8783045
8.19                 0.986154885     -32.9398544
8.192                0.986091421     -33.0013911
8.194                0.986027652     -33.0636275
8.196                0.985963778     -33.1258503
8.198                0.985899799     -33.1880593
8.2                  0.985835716     -33.2502546