! TOUCHSTONE file generated by CST DESIGN STUDIO
! Date and time: Mon Feb 10 16:43:04 2025
! Project name: C:\Work\MatlabApps\UnitCellType2OptimizationMatlab\CST\unitcell.cst
! Tree item: Tasks\Sweep1\SPara1\S-Parameters
! Header version: 2024
! Port assignment regex: !\s*Touchstone port\s*([0-9]+)\s*=\s*(CST MWS port|CST DES external port|CST DES block port)\s*(.+)\s* \(\"(.*)\"\)(\s*mode\s*([0-9]+))?.*
! Touchstone port assignment:
! Touchstone port 1 = CST DES external port 1 ("")
# GHz S MA R 50
7                    0.980362625     -5.74036742
7.002                0.980462687     -5.76946714
7.004                0.980561955     -5.79848507
7.006                0.980660438     -5.82742196
7.008                0.980758144     -5.85627859
7.01                 0.980860787     -5.88533048
7.012                0.980962665     -5.91430194
7.014                0.981063787     -5.94319371
7.016                0.981164162     -5.97200656
7.018                0.981267892     -6.00108434
7.02                 0.981370889     -6.03008281
7.022                0.981473161     -6.05900267
7.024                0.981574715     -6.08784467
7.026                0.981677855     -6.11696786
7.028                0.981780292     -6.14601286
7.03                 0.981882035     -6.17498035
7.032                0.981983092     -6.20387106
7.034                0.982084273     -6.23300686
7.036                 0.98218479     -6.26206559
7.038                 0.98228465     -6.29104795
7.04                 0.982383859     -6.31995463
7.042                0.982482459     -6.34904514
7.044                0.982580445     -6.37805986
7.046                0.982677824     -6.40699948
7.048                0.982774602     -6.43586469
7.05                 0.982870819     -6.46485441
7.052                0.982966486     -6.49377007
7.054                0.983061609     -6.52261236
7.056                0.983156193     -6.55138192
7.058                0.983250837      -6.5802492
7.06                 0.983344993     -6.60904468
7.062                0.983438668       -6.637769
7.064                0.983531867     -6.66642278
7.066                0.983625792     -6.69518648
7.068                0.983719282     -6.72388068
7.07                 0.983812339     -6.75250601
7.072                0.983904968     -6.78106306
7.074                0.983998762      -6.8097778
7.076                0.984092155     -6.83842491
7.078                0.984185152       -6.867005
7.08                 0.984277758     -6.89551866
7.082                0.984371331     -6.92425301
7.084                0.984464534     -6.95292117
7.086                0.984557372     -6.98152372
7.088                0.984649848     -7.01006125
7.09                 0.984742465      -7.0388743
7.092                 0.98483474     -7.06762254
7.094                0.984926677     -7.09630652
7.096                0.985018281     -7.12492681
7.098                0.985108802      -7.1538484
7.1                  0.985199005     -7.18270677
7.102                0.985288892     -7.21150242
7.104                0.985378468     -7.24023588
7.106                0.985465709     -7.26925675
7.108                0.985552649     -7.29821596
7.11                 0.985639292       -7.327114
7.112                0.985725639      -7.3559514
7.114                0.985808674     -7.38503419
7.116                 0.98589143     -7.41405676
7.118                0.985973909     -7.44301961
7.12                 0.986056115     -7.47192322
7.122                0.986134627     -7.50101484
7.124                0.986212894     -7.53004776
7.126                0.986290917     -7.55902245
7.128                  0.9863687     -7.58793941
7.13                 0.986442871     -7.61699077
7.132                0.986516838     -7.64598533
7.134                0.986590602     -7.67492352
7.136                0.986664165      -7.7038058
7.138                0.986734515     -7.73279762
7.14                 0.986804696      -7.7617348
7.142                0.986874709     -7.79061777
7.144                0.986944557     -7.81944695
7.146                0.987011643     -7.84838322
7.148                0.987078586     -7.87726684
7.15                 0.987145387     -7.90609823
7.152                0.987212047     -7.93487779
7.154                0.987276145     -7.96377892
7.156                0.987340119     -7.99262903
7.158                0.987403971     -8.02142851
7.16                 0.987467703     -8.05017778
7.162                0.987528677     -8.07907372
7.164                0.987589547     -8.10792016
7.166                0.987650316     -8.13671749
7.168                0.987710984     -8.16546608
7.17                  0.98776844     -8.19437484
7.172                0.987825808     -8.22323598
7.174                0.987883088     -8.25204983
7.176                0.987940282     -8.28081675
7.178                  0.9879936     -8.30973859
7.18                 0.988046832     -8.33861488
7.182                 0.98809998     -8.36744595
7.184                0.988153044     -8.39623214
7.186                0.988201717     -8.42514467
7.188                0.988250299      -8.4540136
7.19                 0.988298793     -8.48283925
7.192                0.988347198     -8.51162193
7.194                0.988390879     -8.54049201
7.196                0.988434471     -8.56932015
7.198                0.988477975     -8.59810664
7.2                  0.988521391     -8.62685179
7.202                0.988560109     -8.65563831
7.204                0.988598749     -8.68438456
7.206                0.988637315     -8.71309082
7.208                0.988675806     -8.74175737
7.21                 0.988709909     -8.77043353
7.212                0.988743951     -8.79907134
7.214                0.988777934     -8.82767109
7.216                0.988811859     -8.85623302
7.218                0.988841747     -8.88478532
7.22                 0.988871583     -8.91330131
7.222                 0.98890137     -8.94178123
7.224                0.988931107     -8.97022534
7.226                0.988957201     -8.99865213
7.228                0.988983245     -9.02704431
7.23                 0.989009242     -9.05540209
7.232                0.989035191     -9.08372573
7.234                 0.98905763     -9.11203519
7.236                0.989080023     -9.14031139
7.238                 0.98910237     -9.16855454
7.24                 0.989124672     -9.19676487
7.242                0.989143476     -9.22496102
7.244                0.989162238     -9.25312536
7.246                0.989180959     -9.28125809
7.248                0.989199638     -9.30935942
7.25                  0.98921472     -9.33743884
7.252                0.989229755     -9.36548826
7.254                0.989244746     -9.39350787
7.256                0.989259693     -9.42149787
7.258                0.989270938     -9.44944869
7.26                 0.989282121     -9.47737142
7.262                0.989293244     -9.50526623
7.264                0.989304306      -9.5331333
7.266                 0.98931182     -9.56093494
7.268                0.989319253     -9.58871004
7.27                 0.989326603     -9.61645877
7.272                0.989333873     -9.64418129
7.274                0.989337812     -9.67180896
7.276                0.989341657     -9.69941131
7.278                 0.98934541     -9.72698851
7.28                 0.989349072     -9.75454072
7.282                 0.98934981     -9.78198491
7.284                0.989350455     -9.80940507
7.286                0.989351008     -9.83680134
7.288                0.989351472      -9.8641739
7.29                 0.989349469      -9.8914249
7.292                0.989347374     -9.91865342
7.294                 0.98934519     -9.94585961
7.296                0.989342916     -9.97304359
7.298                0.989338528     -10.0001091
7.3                   0.98933404     -10.0271537
7.302                0.989329455     -10.0541774
7.304                0.989324772     -10.0811803
7.306                0.989318216     -10.1080645
7.308                0.989311551     -10.1349288
7.31                 0.989304776     -10.1617733
7.312                0.989297893     -10.1885982
7.314                0.989289254     -10.2153058
7.316                  0.9892805     -10.2419943
7.318                 0.98927163     -10.2686639
7.32                 0.989262647     -10.2953146
7.322                 0.98925199     -10.3218418
7.324                0.989241215     -10.3483509
7.326                0.989230322      -10.374842
7.328                0.989219313     -10.4013152
7.33                 0.989206808     -10.4276488
7.332                0.989194177     -10.4539655
7.334                0.989181419     -10.4802656
7.336                0.989168536     -10.5065489
7.338                0.989154452     -10.5326769
7.34                 0.989140223     -10.5587892
7.342                 0.98912585     -10.5848859
7.344                0.989111334     -10.6109671
7.346                0.989096191     -10.6368765
7.348                0.989080887      -10.662771
7.35                 0.989065423     -10.6886506
7.352                0.989049802     -10.7145154
7.354                0.989034135     -10.7402138
7.356                0.989018304     -10.7658977
7.358                0.989002312     -10.7915673
7.36                 0.988986158     -10.8172226
7.362                0.988970542     -10.8427191
7.364                0.988954769      -10.868202
7.366                0.988938838     -10.8936713
7.368                0.988922752     -10.9191271
7.37                 0.988907613     -10.9444499
7.372                0.988892317     -10.9697601
7.374                0.988876864     -10.9950577
7.376                0.988861255     -11.0203427
7.378                0.988846693     -11.0455224
7.38                 0.988831964     -11.0706903
7.382                0.988817069     -11.0958465
7.384                0.988802009     -11.1209909
7.386                0.988788006     -11.1460438
7.388                0.988773829     -11.1710853
7.39                 0.988759477     -11.1961155
7.392                0.988744951     -11.2211343
7.394                0.988731274     -11.2460724
7.396                0.988717423     -11.2709993
7.398                0.988703399     -11.2959151
7.4                  0.988689202       -11.32082
7.402                0.988675776     -11.3456352
7.404                0.988662182     -11.3704398
7.406                0.988648421     -11.3952339
7.408                0.988634493     -11.4200174
7.41                 0.988621485     -11.4446932
7.412                0.988608311     -11.4693591
7.414                0.988594971     -11.4940151
7.416                0.988581465     -11.5186613
7.418                0.988569293     -11.5431889
7.42                 0.988556952     -11.5677071
7.422                 0.98854444     -11.5922158
7.424                 0.98853176     -11.6167151
7.426                0.988521092     -11.6410921
7.428                0.988510258     -11.6654596
7.43                 0.988499257     -11.6898176
7.432                0.988488091     -11.7141664
7.434                0.988479598     -11.7384179
7.436                0.988470954     -11.7626602
7.438                0.988462158     -11.7868931
7.44                 0.988453211     -11.8111169
7.442                 0.98844745     -11.8352806
7.444                0.988441552     -11.8594355
7.446                0.988435517     -11.8835816
7.448                0.988429346     -11.9077191
7.45                 0.988426527     -11.9318465
7.452                0.988423571     -11.9559657
7.454                0.988420481     -11.9800769
7.456                0.988417257       -12.00418
7.458                0.988417109     -12.0283201
7.46                  0.98841682     -12.0524524
7.462                0.988416389     -12.0765769
7.464                0.988415818     -12.1006936
7.466                0.988417802     -12.1248764
7.468                0.988419645     -12.1490513
7.47                 0.988421347     -12.1732181
7.472                0.988422908     -12.1973771
7.474                 0.98842645     -12.2216084
7.476                0.988429862     -12.2458316
7.478                0.988433145     -12.2700469
7.48                   0.9884363     -12.2942543
7.482                0.988441057     -12.3185178
7.484                0.988445699     -12.3427738
7.486                0.988450228     -12.3670222
7.488                0.988454643      -12.391263
7.49                 0.988460594     -12.4155384
7.492                0.988466439     -12.4398065
7.494                0.988472179     -12.4640675
7.496                0.988477813     -12.4883213
7.498                 0.98848535     -12.5125906
7.5                  0.988492788     -12.5368527
7.502                0.988500127     -12.5611075
7.504                0.988507368     -12.5853551
7.506                0.988517118     -12.6096233
7.508                0.988526788      -12.633884
7.51                 0.988536376     -12.6581371
7.512                0.988545885     -12.6823827
7.514                0.988558591     -12.7066773
7.516                0.988571241     -12.7309644
7.518                0.988583835     -12.7552441
7.52                 0.988596374     -12.7795164
7.522                0.988612426     -12.8038933
7.524                0.988628435     -12.8282635
7.526                0.988644403      -12.852627
7.528                0.988660329     -12.8769838
7.53                 0.988679591     -12.9015086
7.532                0.988698807      -12.926027
7.534                0.988717975     -12.9505392
7.536                0.988737097     -12.9750452
7.538                0.988758886     -12.9997678
7.54                  0.98878062     -13.0244838
7.542                0.988802299     -13.0491933
7.544                0.988823922     -13.0738962
7.546                0.988847246     -13.0988441
7.548                0.988870521     -13.1237849
7.55                 0.988893748     -13.1487186
7.552                0.988916928     -13.1736452
7.554                0.988940817     -13.1988104
7.556                0.988964676     -13.2239686
7.558                0.988988505     -13.2491198
7.56                 0.989012306     -13.2742641
7.562                0.989036181     -13.2996138
7.564                0.989060038      -13.324957
7.566                0.989083877      -13.350294
7.568                0.989107697     -13.3756248
7.57                 0.989131388     -13.4011191
7.572                0.989155062     -13.4266072
7.574                0.989178716     -13.4520892
7.576                0.989202351     -13.4775651
7.578                0.989226219     -13.5031732
7.58                 0.989250076     -13.5287745
7.582                0.989273922     -13.5543688
7.584                0.989297758     -13.5799562
7.586                0.989322583     -13.6056643
7.588                0.989347429     -13.6313649
7.59                 0.989372294     -13.6570582
7.592                0.989397182     -13.6827441
7.594                0.989423702     -13.7085871
7.596                0.989450269     -13.7344236
7.598                0.989476885     -13.7602537
7.6                   0.98950355     -13.7860774
7.602                0.989532173     -13.8121128
7.604                 0.98956084     -13.8381429
7.606                0.989589552     -13.8641677
7.608                0.989618308     -13.8901875
7.61                 0.989648585     -13.9164828
7.612                0.989678888     -13.9427729
7.614                0.989709215     -13.9690577
7.616                0.989739567     -13.9953373
7.618                0.989770541     -14.0219406
7.62                 0.989801536     -14.0485379
7.622                0.989832551     -14.0751293
7.624                0.989863587     -14.1017147
7.626                0.989894051     -14.1286331
7.628                0.989924544     -14.1555453
7.63                 0.989955067     -14.1824516
7.632                0.989985619     -14.2093519
7.634                0.990014417      -14.236563
7.636                0.990043247     -14.2637685
7.638                 0.99007211     -14.2909683
7.64                 0.990101004     -14.3181625
7.642                0.990127384     -14.3456128
7.644                0.990153795     -14.3730572
7.646                0.990180237     -14.4004957
7.648                0.990206711     -14.4279282
7.65                 0.990230602     -14.4555501
7.652                0.990254535     -14.4831656
7.654                0.990278513     -14.5107748
7.656                0.990302537     -14.5383778
7.658                0.990324595     -14.5661226
7.66                 0.990346716     -14.5938616
7.662                0.990368901     -14.6215949
7.664                0.990391148     -14.6493226
7.666                0.990412376     -14.6771827
7.668                0.990433677      -14.705038
7.67                 0.990455048     -14.7328885
7.672                0.990476489     -14.7607343
7.674                0.990497618     -14.7887403
7.676                0.990518815      -14.816742
7.678                0.990540078     -14.8447395
7.68                 0.990561407     -14.8727328
7.682                0.990582758     -14.9009347
7.684                0.990604165     -14.9291324
7.686                0.990625629      -14.957326
7.688                0.990647151     -14.9855154
7.69                 0.990668324     -15.0139777
7.692                0.990689542      -15.042436
7.694                0.990710807     -15.0708901
7.696                0.990732117       -15.09934
7.698                0.990752206     -15.1280949
7.7                  0.990772332     -15.1568456
7.702                0.990792495     -15.1855922
7.704                0.990812697     -15.2143346
7.706                0.990830386     -15.2433881
7.708                0.990848111     -15.2724374
7.71                 0.990865873     -15.3014825
7.712                 0.99088367     -15.3305234
7.714                0.990897845     -15.3598321
7.716                 0.99091206     -15.3891366
7.718                0.990926316      -15.418437
7.72                 0.990940611     -15.4477334
7.722                0.990950668     -15.4772296
7.724                0.990960765     -15.5067222
7.726                0.990970903      -15.536211
7.728                0.990981082     -15.5656961
7.73                 0.990987216     -15.5953069
7.732                0.990993384     -15.6249144
7.734                0.990999586     -15.6545188
7.736                0.991005823       -15.68412
7.738                0.991008843     -15.7137887
7.74                 0.991011889     -15.7434546
7.742                0.991014962     -15.7731175
7.744                0.991018062     -15.8027777
7.746                0.991019069     -15.8324883
7.748                0.991020102     -15.8621963
7.75                 0.991021158     -15.8919014
7.752                0.991022239     -15.9216038
7.754                0.991022264     -15.9513791
7.756                0.991022313     -15.9811518
7.758                0.991022386     -16.0109221
7.76                 0.991022483       -16.04069
7.762                0.991022085     -16.0705866
7.764                0.991021701     -16.1004813
7.766                0.991021331     -16.1303742
7.768                0.991020974     -16.1602652
7.77                 0.991019934     -16.1903433
7.772                0.991018887       -16.22042
7.774                0.991017833     -16.2504953
7.776                0.991016773     -16.2805691
7.778                 0.99101419     -16.3108702
7.78                 0.991011584     -16.3411697
7.782                0.991008955     -16.3714677
7.784                0.991006303     -16.4017642
7.786                0.991000939     -16.4322895
7.788                0.990995551      -16.462813
7.79                  0.99099014     -16.4933345
7.792                0.990984705     -16.5238541
7.794                0.990975564     -16.5545538
7.796                0.990966408     -16.5852515
7.798                0.990957235     -16.6159474
7.8                  0.990948047     -16.6466414
7.802                0.990934715     -16.6774458
7.804                0.990921365      -16.708249
7.806                0.990907997     -16.7390508
7.808                0.990894611     -16.7698514
7.81                 0.990877471     -16.8006792
7.812                0.990860296     -16.8315063
7.814                0.990843086     -16.8623327
7.816                0.990825841     -16.8931583
7.818                0.990805907     -16.9239591
7.82                  0.99078592     -16.9547593
7.822                 0.99076588     -16.9855587
7.824                0.990745788     -17.0163574
7.826                0.990724459     -17.0471147
7.828                0.990703071     -17.0778712
7.83                 0.990681623     -17.1086267
7.832                0.990660116     -17.1393812
7.834                 0.99063863     -17.1701211
7.836                0.990617084     -17.2008603
7.838                0.990595477     -17.2315988
7.84                  0.99057381     -17.2623366
7.842                0.990552941     -17.2931257
7.844                   0.990532     -17.3239148
7.846                 0.99051099      -17.354704
7.848                0.990489909     -17.3854932
7.85                 0.990469571     -17.4164082
7.852                0.990449142     -17.4473236
7.854                0.990428623     -17.4782395
7.856                0.990408014     -17.5091559
7.858                0.990387301     -17.5402442
7.86                 0.990366488     -17.5713326
7.862                0.990345574      -17.602421
7.864                0.990324559     -17.6335094
7.866                0.990302343     -17.6647757
7.868                0.990280039     -17.6960411
7.87                 0.990257647     -17.7273059
7.872                0.990235169     -17.7585699
7.874                 0.99021044     -17.7899767
7.876                0.990185648     -17.8213826
7.878                0.990160793     -17.8527876
7.88                 0.990135875     -17.8841915
7.882                0.990108383     -17.9156671
7.884                0.990080838     -17.9471423
7.886                0.990053239      -17.978617
7.888                0.990025587     -18.0100912
7.89                 0.989995807     -18.0415628
7.892                0.989965958     -18.0730343
7.894                0.989936042      -18.104506
7.896                0.989906058     -18.1359777
7.898                0.989875133     -18.1674004
7.9                  0.989844116     -18.1988231
7.902                0.989813007     -18.2302457
7.904                0.989781807     -18.2616682
7.906                0.989751234     -18.2930322
7.908                0.989720554     -18.3243958
7.91                 0.989689769     -18.3557589
7.912                0.989658878     -18.3871215
7.914                0.989630068      -18.418469
7.916                 0.98960115     -18.4498162
7.918                0.989572123     -18.4811631
7.92                 0.989542988     -18.5125097
7.922                0.989516713     -18.5439192
7.924                0.989490326     -18.5753291
7.926                0.989463826     -18.6067396
7.928                0.989437213     -18.6381506
7.93                 0.989413403     -18.6697095
7.932                0.989389474     -18.7012694
7.934                0.989365424     -18.7328303
7.936                0.989341255     -18.7643921
7.938                 0.98931897     -18.7961678
7.94                 0.989296573     -18.8279437
7.942                0.989274066       -18.85972
7.944                0.989251449     -18.8914965
7.946                0.989229392     -18.9234971
7.948                0.989207265     -18.9554967
7.95                 0.989185067     -18.9874953
7.952                0.989162798     -19.0194929
7.954                0.989139976     -19.0516912
7.956                0.989117138     -19.0838879
7.958                0.989094284     -19.1160829
7.96                 0.989071415     -19.1482764
7.962                 0.98904752     -19.1806087
7.964                0.989023645     -19.2129397
7.966                 0.98899979     -19.2452695
7.968                0.988975953     -19.2775981
7.97                 0.988951451     -19.3100017
7.972                 0.98892696     -19.3424048
7.974                 0.98890248     -19.3748072
7.976                0.988878011     -19.4072091
7.978                0.988854035     -19.4396434
7.98                 0.988830029     -19.4720771
7.982                0.988805992     -19.5045104
7.984                0.988781923     -19.5369431
7.986                 0.98875991     -19.5694128
7.988                0.988737821     -19.6018817
7.99                 0.988715657     -19.6343496
7.992                0.988693416     -19.6668165
7.994                0.988674667     -19.6993714
7.996                0.988655818     -19.7319253
7.998                 0.98863687     -19.7644783
8                    0.988617822     -19.7970302
8.002                0.988603027     -19.8297603
8.004                0.988588131     -19.8624901
8.006                0.988573133     -19.8952197
8.008                0.988558034      -19.927949
8.01                 0.988546833     -19.9609562
8.012                0.988535547     -19.9939637
8.014                0.988524173     -20.0269717
8.016                0.988512711       -20.05998
8.018                 0.98850396     -20.0933281
8.02                  0.98849516      -20.126676
8.022                0.988486313     -20.1600235
8.024                0.988477417     -20.1933707
8.026                0.988469611     -20.2270827
8.028                0.988461831     -20.2607927
8.03                 0.988454078     -20.2945007
8.032                0.988446352     -20.3282068
8.034                0.988438386      -20.362244
8.036                0.988430545     -20.3962779
8.038                 0.98842283     -20.4303084
8.04                 0.988415241     -20.4643355
8.042                0.988406668     -20.4986403
8.044                0.988398301     -20.5329416
8.046                 0.98839014     -20.5672393
8.048                0.988382184     -20.6015335
8.05                 0.988373437     -20.6360541
8.052                0.988364901     -20.6705721
8.054                0.988356576     -20.7050875
8.056                0.988348463     -20.7396004
8.058                0.988340561     -20.7742911
8.06                 0.988332774     -20.8089801
8.062                0.988325102     -20.8436674
8.064                0.988317546      -20.878353
8.066                0.988311864     -20.9132268
8.068                0.988306142     -20.9480986
8.07                 0.988300381     -20.9829684
8.072                0.988294582     -21.0178363
8.074                0.988292286     -21.0529409
8.076                0.988289832     -21.0880423
8.078                0.988287223     -21.1231406
8.08                 0.988284457     -21.1582358
8.082                0.988285904      -21.193668
8.084                0.988287182     -21.2290966
8.086                 0.98828829     -21.2645216
8.088                0.988289229      -21.299943
8.09                 0.988293711     -21.3358093
8.092                0.988298102     -21.3716727
8.094                0.988302402     -21.4075332
8.096                 0.98830661     -21.4433908
8.098                0.988312587     -21.4797482
8.1                  0.988318581     -21.5161031
8.102                0.988324593     -21.5524556
8.104                0.988330622     -21.5888055
8.106                0.988336449     -21.6256593
8.108                0.988342389     -21.6625086
8.11                 0.988348441     -21.6993536
8.112                0.988354608     -21.7361942
8.114                0.988359123     -21.7735065
8.116                0.988363863      -21.810808
8.118                0.988368828     -21.8480987
8.12                 0.988374017     -21.8853787
8.122                0.988376668     -21.9230908
8.124                0.988379792     -21.9607803
8.126                0.988383384     -21.9984475
8.128                0.988387443     -22.0360922
8.13                 0.988388141     -22.0741609
8.132                0.988389766     -22.1121946
8.134                0.988392314     -22.1501929
8.136                0.988395781     -22.1881556
8.138                0.988395125     -22.2265235
8.14                 0.988395878     -22.2648508
8.142                0.988398036     -22.3031371
8.144                0.988401595     -22.3413819
8.146                0.988401114     -22.3800265
8.148                0.988402111     -22.4186383
8.15                 0.988404582     -22.4572169
8.152                0.988408527     -22.4957618
8.154                0.988410355     -22.5346941
8.156                0.988413034     -22.5736098
8.158                0.988416564     -22.6125088
8.16                 0.988420944     -22.6513909
8.162                0.988426618     -22.6906717
8.164                0.988432086     -22.7299476
8.166                0.988437347     -22.7692186
8.168                0.988442399     -22.8084846
8.17                 0.988451937     -22.8482444
8.172                0.988460373     -22.8879993
8.174                0.988467708     -22.9277487
8.176                0.988473943     -22.9674924
8.178                0.988485475      -23.007847
8.18                 0.988495552     -23.0481886
8.182                0.988504175     -23.0885166
8.184                0.988511344     -23.1288303
8.186                0.988521954     -23.1698354
8.188                 0.98853126     -23.2108201
8.19                 0.988539261     -23.2517836
8.192                0.988545956     -23.2927255
8.194                0.988552889     -23.3343387
8.196                 0.98855893     -23.3759293
8.198                0.988564079     -23.4174969
8.2                  0.988568338     -23.4590411