! TOUCHSTONE file generated by CST DESIGN STUDIO
! Date and time: Mon Feb 10 16:42:59 2025
! Project name: C:\Work\MatlabApps\UnitCellType2OptimizationMatlab\CST\unitcell.cst
! Tree item: Tasks\Sweep1\SPara1\S-Parameters
! Header version: 2024
! Port assignment regex: !\s*Touchstone port\s*([0-9]+)\s*=\s*(CST MWS port|CST DES external port|CST DES block port)\s*(.+)\s* \(\"(.*)\"\)(\s*mode\s*([0-9]+))?.*
! Touchstone port assignment:
! Touchstone port 1 = CST DES external port 1 ("")
# GHz S MA R 50
7                    0.990418774     -10.3420884
7.002                0.990428718     -10.3594466
7.004                0.990438597      -10.376802
7.006                0.990448411     -10.3941545
7.008                 0.99045816     -10.4115041
7.01                 0.990471448      -10.428968
7.012                0.990484677     -10.4464289
7.014                0.990497847     -10.4638868
7.016                0.990510959     -10.4813418
7.018                0.990527081     -10.4989405
7.02                 0.990543149     -10.5165361
7.022                0.990559163     -10.5341287
7.024                0.990575122     -10.5517182
7.026                0.990593514     -10.5694629
7.028                0.990611855     -10.5872045
7.03                 0.990630144      -10.604943
7.032                0.990648381     -10.6226784
7.034                0.990668612     -10.6405652
7.036                0.990688795     -10.6584487
7.038                 0.99070893     -10.6763289
7.04                 0.990729018     -10.6942059
7.042                0.990750872     -10.7122246
7.044                0.990772685       -10.73024
7.046                0.990794458     -10.7482518
7.048                 0.99081619     -10.7662603
7.05                 0.990839714     -10.7844038
7.052                0.990863206      -10.802544
7.054                0.990886668     -10.8206806
7.056                0.990910099     -10.8388139
7.058                0.990935467     -10.8570885
7.06                 0.990960812     -10.8753597
7.062                0.990986135     -10.8936276
7.064                0.991011436     -10.9118921
7.066                0.991038758     -10.9303155
7.068                0.991066063     -10.9487355
7.07                 0.991093352     -10.9671521
7.072                0.991120624     -10.9855652
7.074                0.991149908      -11.004162
7.076                0.991179182      -11.022755
7.078                0.991208446     -11.0413443
7.08                 0.991237699     -11.0599298
7.082                0.991268723     -11.0787273
7.084                0.991299745     -11.0975208
7.086                0.991330765     -11.1163101
7.088                0.991361784     -11.1350955
7.09                 0.991394122     -11.1541181
7.092                0.991426467     -11.1731365
7.094                0.991458817     -11.1921509
7.096                0.991491175     -11.2111611
7.098                0.991524279     -11.2304225
7.1                  0.991557392     -11.2496798
7.102                0.991590516     -11.2689331
7.104                0.991623649     -11.2881824
7.106                 0.99165694     -11.3076805
7.108                0.991690241     -11.3271746
7.11                 0.991723552     -11.3466646
7.112                0.991756872     -11.3661506
7.114                0.991789873     -11.3858757
7.116                0.991822886     -11.4055966
7.118                0.991855911     -11.4253133
7.12                 0.991888948     -11.4450257
7.122                0.991921416     -11.4649606
7.124                0.991953903     -11.4848911
7.126                0.991986409     -11.5048174
7.128                0.992018934     -11.5247395
7.13                 0.992050792     -11.5448681
7.132                0.992082675     -11.5649926
7.134                0.992114583     -11.5851131
7.136                0.992146516     -11.6052296
7.138                0.992177745     -11.6255505
7.14                 0.992208999     -11.6458675
7.142                 0.99224028     -11.6661804
7.144                0.992271585     -11.6864894
7.146                0.992302172     -11.7070036
7.148                0.992332787     -11.7275135
7.15                  0.99236343      -11.748019
7.152                  0.9923941     -11.7685202
7.154                0.992423944     -11.7892317
7.156                0.992453824     -11.8099385
7.158                0.992483741     -11.8306406
7.16                 0.992513695      -11.851338
7.162                0.992542603      -11.872254
7.164                0.992571558     -11.8931654
7.166                0.992600563     -11.9140722
7.168                0.992629617     -11.9349745
7.17                 0.992657304     -11.9561022
7.172                0.992685043      -11.977226
7.174                0.992712834     -11.9983458
7.176                0.992740677     -12.0194617
7.178                0.992766712     -12.0407991
7.18                 0.992792791      -12.062133
7.182                0.992818914     -12.0834634
7.184                0.992845081     -12.1047902
7.186                0.992869076     -12.1263228
7.188                0.992893108     -12.1478517
7.19                 0.992917176      -12.169377
7.192                0.992941281     -12.1908986
7.194                0.992962958     -12.2126075
7.196                0.992984671     -12.2343127
7.198                 0.99300642     -12.2560141
7.2                  0.993028207     -12.2777119
7.202                0.993047479     -12.2995753
7.204                0.993066789     -12.3214352
7.206                0.993086138     -12.3432917
7.208                0.993105526     -12.3651446
7.21                 0.993122416     -12.3871473
7.212                0.993139344     -12.4091467
7.214                0.993156308     -12.4311428
7.216                 0.99317331     -12.4531357
7.218                0.993187834     -12.4752689
7.22                 0.993202393     -12.4973988
7.222                0.993216988     -12.5195256
7.224                0.993231619     -12.5416491
7.226                0.993243847     -12.5639032
7.228                0.993256113     -12.5861541
7.23                 0.993268416     -12.6084018
7.232                0.993280757     -12.6306465
7.234                0.993290654     -12.6530183
7.236                 0.99330059     -12.6753873
7.238                0.993310565     -12.6977535
7.24                 0.993320579     -12.7201169
7.242                0.993328058     -12.7426034
7.244                0.993335571     -12.7650876
7.246                0.993343118     -12.7875694
7.248                0.993350698      -12.810049
7.25                 0.993355596     -12.8326422
7.252                0.993360518     -12.8552333
7.254                0.993365463     -12.8778224
7.256                 0.99337043     -12.9004093
7.258                0.993372587     -12.9230955
7.26                 0.993374758     -12.9457797
7.262                0.993376943     -12.9684617
7.264                0.993379142     -12.9911416
7.266                0.993378576     -13.0138995
7.268                0.993378019     -13.0366553
7.27                  0.99337747     -13.0594091
7.272                 0.99337693      -13.082161
7.274                0.993373706     -13.1049714
7.276                0.993370486       -13.12778
7.278                 0.99336727     -13.1505869
7.28                 0.993364058     -13.1733922
7.282                0.993358339      -13.196248
7.284                0.993352618     -13.2191024
7.286                0.993346896     -13.2419555
7.288                0.993341173     -13.2648071
7.29                 0.993333126     -13.2876961
7.292                0.993325071     -13.3105838
7.294                 0.99331701     -13.3334703
7.296                0.993308941     -13.3563556
7.298                0.993298674     -13.3792746
7.3                  0.993288394     -13.4021926
7.302                0.993278101     -13.4251095
7.304                0.993267797     -13.4480253
7.306                0.993255405     -13.4709671
7.308                0.993242996      -13.493908
7.31                 0.993230569     -13.5168481
7.312                0.993218123     -13.5397873
7.314                 0.99320365     -13.5627464
7.316                0.993189152     -13.5857048
7.318                 0.99317463     -13.6086627
7.32                 0.993160084     -13.6316199
7.322                0.993143559     -13.6545884
7.324                0.993127002     -13.6775564
7.326                0.993110414     -13.7005239
7.328                0.993093794      -13.723491
7.33                 0.993075323     -13.7464527
7.332                0.993056812      -13.769414
7.334                0.993038263     -13.7923749
7.336                0.993019675     -13.8153353
7.338                0.992999439     -13.8382772
7.34                 0.992979158     -13.8612188
7.342                0.992958831       -13.88416
7.344                0.992938459     -13.9071008
7.346                0.992916807     -13.9300088
7.348                0.992895104     -13.9529165
7.35                  0.99287335     -13.9758241
7.352                0.992851545     -13.9987315
7.354                 0.99282881     -14.0216105
7.356                0.992806019     -14.0444894
7.358                0.992783173     -14.0673682
7.36                 0.992760272      -14.090247
7.362                0.992736762     -14.1130949
7.364                0.992713194     -14.1359428
7.366                0.992689567     -14.1587907
7.368                0.992665883     -14.1816387
7.37                 0.992641839     -14.2044649
7.372                0.992617734     -14.2272912
7.374                 0.99259357     -14.2501175
7.376                0.992569345      -14.272944
7.378                0.992544847     -14.2957595
7.38                 0.992520285     -14.3185751
7.382                0.992495661     -14.3413909
7.384                0.992470974     -14.3642069
7.386                0.992446108     -14.3870096
7.388                0.992421176     -14.4098126
7.39                 0.992396178     -14.4326158
7.392                0.992371114     -14.4554193
7.394                 0.99234584     -14.4782146
7.396                0.992320498     -14.5010103
7.398                0.992295086     -14.5238063
7.4                  0.992269607     -14.5466027
7.402                0.992243994     -14.5693806
7.404                0.992218311     -14.5921588
7.406                0.992192558     -14.6149373
7.408                0.992166735     -14.6377162
7.41                 0.992141004     -14.6604631
7.412                0.992115204     -14.6832104
7.414                0.992089334     -14.7059579
7.416                0.992063395     -14.7287057
7.418                0.992037899     -14.7514181
7.42                 0.992012334     -14.7741308
7.422                  0.9919867     -14.7968438
7.424                0.991960999     -14.8195571
7.426                0.991936231     -14.8422335
7.428                0.991911398     -14.8649102
7.43                 0.991886498     -14.8875874
7.432                0.991861532     -14.9102648
7.434                0.991837905     -14.9329236
7.436                0.991814216     -14.9555827
7.438                0.991790464     -14.9782422
7.44                 0.991766649     -15.0009021
7.442                0.991744488     -15.0235635
7.444                 0.99172227     -15.0462253
7.446                0.991699993     -15.0688874
7.448                0.991677659     -15.0915498
7.45                 0.991657116     -15.1142382
7.452                0.991636519     -15.1369271
7.454                0.991615868     -15.1596162
7.456                0.991595163     -15.1823057
7.458                0.991576163     -15.2050469
7.46                 0.991557112     -15.2277884
7.462                0.991538009     -15.2505304
7.464                0.991518854     -15.2732728
7.466                0.991501212      -15.296081
7.468                0.991483519     -15.3188897
7.47                 0.991465776     -15.3416988
7.472                0.991447983     -15.3645083
7.474                0.991431508     -15.3873874
7.476                0.991414986     -15.4102668
7.478                0.991398417     -15.4331467
7.48                 0.991381799      -15.456027
7.482                0.991366436     -15.4789674
7.484                 0.99135103     -15.5019082
7.486                0.991335582     -15.5248493
7.488                0.991320091     -15.5477908
7.49                 0.991305979     -15.5707848
7.492                0.991291831     -15.5937791
7.494                0.991277646     -15.6167737
7.496                0.991263426     -15.6397686
7.498                0.991250922     -15.6628128
7.5                  0.991238389     -15.6858573
7.502                0.991225827     -15.7089022
7.504                0.991213234     -15.7319474
7.506                0.991202765     -15.7550563
7.508                0.991192275     -15.7781655
7.51                 0.991181762      -15.801275
7.512                0.991171227     -15.8243848
7.514                0.991163192     -15.8475804
7.516                0.991155144     -15.8707763
7.518                0.991147082     -15.8939724
7.52                 0.991139007     -15.9171689
7.522                0.991133574     -15.9404884
7.524                0.991128135     -15.9638083
7.526                0.991122689     -15.9871284
7.528                0.991117237     -16.0104488
7.53                 0.991114296     -16.0339291
7.532                0.991111352     -16.0574097
7.534                0.991108406     -16.0808906
7.536                0.991105458     -16.1043719
7.538                0.991104663     -16.1280405
7.54                 0.991103869     -16.1517095
7.542                0.991103074     -16.1753789
7.544                0.991102279     -16.1990485
7.546                0.991103126     -16.2229244
7.548                0.991103976     -16.2468006
7.55                 0.991104827     -16.2706771
7.552                0.991105681     -16.2945538
7.554                0.991107679     -16.3186356
7.556                0.991109684     -16.3427176
7.558                0.991111694     -16.3667997
7.56                 0.991113712      -16.390882
7.562                0.991116633     -16.4151522
7.564                0.991119566     -16.4394224
7.566                0.991122511     -16.4636928
7.568                0.991125468     -16.4879632
7.57                 0.991129332     -16.5124064
7.572                0.991133214     -16.5368496
7.574                0.991137113     -16.5612929
7.576                0.991141031     -16.5857362
7.578                0.991146127     -16.6103488
7.58                 0.991151247     -16.6349615
7.582                0.991156391     -16.6595742
7.584                0.991161559     -16.6841869
7.586                0.991168313     -16.7089727
7.588                0.991175098     -16.7337585
7.59                 0.991181914     -16.7585443
7.592                0.991188762       -16.78333
7.594                0.991197406     -16.8083232
7.596                0.991206089     -16.8333164
7.598                0.991214811     -16.8583095
7.6                  0.991223571     -16.8833026
7.602                0.991234194     -16.9085349
7.604                 0.99124486     -16.9337672
7.606                 0.99125557     -16.9589995
7.608                0.991266323     -16.9842317
7.61                 0.991278584     -17.0097431
7.612                0.991290889     -17.0352545
7.614                0.991303238     -17.0607658
7.616                0.991315631     -17.0862771
7.618                0.991328945     -17.1120984
7.62                 0.991342302     -17.1379196
7.622                0.991355702     -17.1637407
7.624                0.991369146     -17.1895616
7.626                0.991382773     -17.2156952
7.628                0.991396443     -17.2418286
7.63                 0.991410158     -17.2679617
7.632                0.991423917     -17.2940946
7.634                0.991437202      -17.320528
7.636                0.991450534     -17.3469611
7.638                0.991463914     -17.3733939
7.64                 0.991477339     -17.3998264
7.642                0.991489924     -17.4265321
7.644                0.991502557     -17.4532376
7.646                0.991515239     -17.4799427
7.648                 0.99152797     -17.5066474
7.65                 0.991539847     -17.5335942
7.652                0.991551775     -17.5605406
7.654                0.991563752     -17.5874866
7.656                0.991575779     -17.6144324
7.658                0.991587266     -17.6416054
7.66                 0.991598805     -17.6687781
7.662                0.991610396     -17.6959503
7.664                0.991622038     -17.7231223
7.666                0.991633592      -17.750524
7.668                0.991645202     -17.7779254
7.67                 0.991656867     -17.8053263
7.672                0.991668588     -17.8327267
7.674                 0.99168048     -17.8603793
7.676                0.991692433     -17.8880314
7.678                0.991704444     -17.9156832
7.68                 0.991716516     -17.9433345
7.682                0.991728787     -17.9712684
7.684                0.991741117      -17.999202
7.686                0.991753507     -18.0271352
7.688                0.991765957      -18.055068
7.69                 0.991778217     -18.0833259
7.692                0.991790531     -18.1115835
7.694                0.991802901     -18.1398408
7.696                0.991815326     -18.1680977
7.698                0.991826903      -18.196692
7.7                   0.99183853     -18.2252859
7.702                0.991850207     -18.2538794
7.704                0.991861933     -18.2824725
7.706                 0.99187197     -18.3114033
7.708                0.991882053     -18.3403335
7.71                 0.991892185     -18.3692632
7.712                0.991902364     -18.3981924
7.714                0.991910215     -18.4274298
7.716                0.991918114     -18.4566665
7.718                0.991926059     -18.4859027
7.72                  0.99193405     -18.5151384
7.722                0.991939375     -18.5446422
7.724                0.991944742     -18.5741456
7.726                0.991950154     -18.6036484
7.728                0.991955608     -18.6331508
7.73                 0.991958541     -18.6628819
7.732                0.991961511     -18.6926125
7.734                0.991964518     -18.7223428
7.736                0.991967562     -18.7520726
7.738                0.991968564      -18.782002
7.74                 0.991969598     -18.8119309
7.742                0.991970664     -18.8418594
7.744                0.991971763     -18.8717874
7.746                0.991971391     -18.9019103
7.748                 0.99197105     -18.9320326
7.75                  0.99197074     -18.9621543
7.752                0.991970462     -18.9922755
7.754                0.991969212     -19.0226117
7.756                0.991967992     -19.0529473
7.758                0.991966803     -19.0832824
7.76                 0.991965646      -19.113617
7.762                0.991963646     -19.1442016
7.764                0.991961672     -19.1747857
7.766                0.991959724     -19.2053695
7.768                0.991957801     -19.2359528
7.77                 0.991954734     -19.2668163
7.772                0.991951682     -19.2976795
7.774                0.991948647     -19.3285423
7.776                0.991945628     -19.3594047
7.778                 0.99194083     -19.3905643
7.78                 0.991936039     -19.4217233
7.782                0.991931256     -19.4528819
7.784                 0.99192648     -19.4840399
7.786                0.991919183     -19.5154879
7.788                 0.99191189     -19.5469353
7.79                 0.991904601     -19.5783819
7.792                0.991897315     -19.6098278
7.794                0.991886944      -19.641525
7.796                0.991876574     -19.6732214
7.798                0.991866206     -19.7049171
7.8                  0.991855838      -19.736612
7.802                0.991842207     -19.7685154
7.804                 0.99182857     -19.8004182
7.806                0.991814927     -19.8323203
7.808                 0.99180128     -19.8642218
7.81                 0.991784691     -19.8962795
7.812                0.991768086     -19.9283367
7.814                0.991751464     -19.9603934
7.816                0.991734825     -19.9924494
7.818                 0.99171595     -20.0246345
7.82                 0.991697049     -20.0568189
7.822                0.991678122     -20.0890025
7.824                0.991659168     -20.1211854
7.826                0.991638845      -20.153494
7.828                0.991618492     -20.1858016
7.83                 0.991598108     -20.2181083
7.832                0.991577695     -20.2504141
7.834                0.991556563      -20.282865
7.836                  0.9915354     -20.3153151
7.838                0.991514205     -20.3477642
7.84                 0.991492978     -20.3802124
7.842                0.991471347     -20.4128474
7.844                0.991449678     -20.4454817
7.846                0.991427973     -20.4781152
7.848                 0.99140623     -20.5107478
7.85                 0.991383913     -20.5436076
7.852                 0.99136155     -20.5764665
7.854                 0.99133914     -20.6093246
7.856                0.991316685     -20.6421819
7.858                0.991293046     -20.6752837
7.86                 0.991269355     -20.7083845
7.862                0.991245612     -20.7414842
7.864                0.991221817     -20.7745828
7.866                0.991196222     -20.8079187
7.868                0.991170577     -20.8412532
7.87                 0.991144881     -20.8745862
7.872                0.991119135     -20.9079177
7.874                0.991091045       -20.94146
7.876                0.991062907     -20.9750007
7.878                0.991034724     -21.0085398
7.88                 0.991006493     -21.0420772
7.882                0.990975893     -21.0757752
7.884                0.990945245     -21.1094716
7.886                0.990914548     -21.1431664
7.888                0.990883803     -21.1768596
7.89                 0.990851124     -21.2106662
7.892                0.990818388     -21.2444713
7.894                0.990785594     -21.2782747
7.896                0.990752743     -21.3120766
7.898                0.990718835     -21.3459698
7.9                  0.990684861     -21.3798612
7.902                0.990650819     -21.4137509
7.904                0.990616711     -21.4476388
7.906                 0.99058256     -21.4816184
7.908                0.990548338      -21.515596
7.91                 0.990514046     -21.5495716
7.912                0.990479683     -21.5835452
7.914                0.990446124     -21.6176464
7.916                0.990412495     -21.6517455
7.918                0.990378796     -21.6858425
7.92                 0.990345026     -21.7199374
7.922                0.990312415     -21.7542097
7.924                0.990279732       -21.78848
7.926                0.990246979     -21.8227484
7.928                0.990214156     -21.8570148
7.93                 0.990182363      -21.891508
7.932                0.990150498     -21.9259991
7.934                 0.99011856     -21.9604882
7.936                0.990086551     -21.9949753
7.938                0.990054994     -22.0297231
7.94                 0.990023369     -22.0644686
7.942                0.989991676     -22.0992116
7.944                0.989959915     -22.1339523
7.946                 0.98992786     -22.1689506
7.948                0.989895751     -22.2039459
7.95                 0.989863589     -22.2389384
7.952                0.989831373     -22.2739278
7.954                0.989798342     -22.3091572
7.956                0.989765277     -22.3443833
7.958                0.989732175     -22.3796061
7.96                 0.989699039     -22.4148257
7.962                0.989665015     -22.4502432
7.964                0.989630966     -22.4856574
7.966                0.989596891     -22.5210683
7.968                0.989562791     -22.5564759
7.97                 0.989528256     -22.5920428
7.972                0.989493691     -22.6276065
7.974                0.989459097     -22.6631669
7.976                0.989424474     -22.6987241
7.978                0.989390323     -22.7344221
7.98                 0.989356131     -22.7701168
7.982                0.989321897     -22.8058081
7.984                0.989287622     -22.8414961
7.986                 0.98925486     -22.8773417
7.988                0.989222046     -22.9131839
7.99                  0.98918918     -22.9490226
7.992                0.989156262     -22.9848577
7.994                0.989125678     -23.0208945
7.996                0.989095038     -23.0569278
7.998                0.989064342     -23.0929575
8                    0.989033589     -23.1289837
8.002                0.989005537     -23.1652745
8.004                0.988977432     -23.2015619
8.006                0.988949274     -23.2378459
8.008                0.988921063     -23.2741264
8.01                 0.988895207     -23.3107364
8.012                0.988869308      -23.347343
8.014                0.988843364     -23.3839461
8.016                0.988817377     -23.4205457
8.018                0.988793027     -23.4575082
8.02                 0.988768652     -23.4944668
8.022                0.988744251     -23.5314215
8.024                0.988719824     -23.5683723
8.026                0.988696096      -23.605702
8.028                0.988672372      -23.643027
8.03                 0.988648651     -23.6803474
8.032                0.988624935     -23.7176632
8.034                0.988601266     -23.7553317
8.036                0.988577637     -23.7929948
8.038                0.988554048     -23.8306526
8.04                 0.988530498     -23.8683052
8.042                0.988506736     -23.9062774
8.044                0.988483042      -23.944244
8.046                0.988459415      -23.982205
8.048                0.988435855     -24.0201604
8.05                 0.988412468     -24.0584118
8.052                 0.98838915     -24.0966577
8.054                0.988365903     -24.1348981
8.056                0.988342726      -24.173133
8.058                0.988320506     -24.2116407
8.06                 0.988298327     -24.2501432
8.062                0.988276187     -24.2886405
8.064                0.988254088     -24.3271325
8.066                 0.98823398     -24.3659268
8.068                0.988213864     -24.4047159
8.07                 0.988193739     -24.4434999
8.072                0.988173606     -24.4822788
8.074                0.988156309     -24.5214038
8.076                0.988138966     -24.5605234
8.078                0.988121576     -24.5996377
8.08                 0.988104139     -24.6387465
8.082                0.988089728     -24.6782762
8.084                0.988075267     -24.7178001
8.086                0.988060758     -24.7573182
8.088                0.988046199     -24.7968306
8.09                 0.988034107     -24.8368373
8.092                0.988021999     -24.8768381
8.094                0.988009874     -24.9168329
8.096                0.987997733     -24.9568217
8.098                0.987986968     -24.9973382
8.1                  0.987976234     -25.0378485
8.102                0.987965529     -25.0783525
8.104                0.987954855     -25.1188504
8.106                0.987944362      -25.159881
8.108                0.987933937     -25.2009045
8.11                 0.987923581      -25.241921
8.112                0.987913293     -25.2829305
8.114                0.987902367     -25.3244532
8.116                0.987891547     -25.3659664
8.118                0.987880832       -25.40747
8.12                 0.987870222     -25.4489641
8.122                0.987858633     -25.4909379
8.124                0.987847229     -25.5328972
8.126                 0.98783601      -25.574842
8.128                0.987824976     -25.6167724
8.13                 0.987812877     -25.6591759
8.132                 0.98780112     -25.7015591
8.134                0.987789705     -25.7439218
8.136                0.987778632     -25.7862641
8.138                0.987766593      -25.829065
8.14                 0.987755076     -25.8718421
8.142                0.987744078     -25.9145952
8.144                0.987733599     -25.9573239
8.146                0.987722633     -26.0005349
8.148                0.987712229     -26.0437242
8.15                 0.987702387     -26.0868916
8.152                0.987693107     -26.1300369
8.154                0.987684313     -26.1736941
8.156                0.987675875     -26.2173369
8.158                0.987667791      -26.260965
8.16                 0.987660063     -26.3045784
8.162                0.987654007     -26.3487412
8.164                0.987647925     -26.3928962
8.166                0.987641816     -26.4370434
8.168                0.987635679     -26.4811828
8.17                 0.987631974     -26.5259491
8.172                0.987627897     -26.5707095
8.174                0.987623446     -26.6154638
8.176                 0.98761862      -26.660212
8.178                0.987615816     -26.7056417
8.18                 0.987612488     -26.7510623
8.182                0.987608634     -26.7964736
8.184                0.987604253     -26.8418752
8.186                0.987600587     -26.8879853
8.188                 0.98759645      -26.934082
8.19                 0.987591842      -26.980165
8.192                0.987586762     -27.0262343
8.194                0.987580803     -27.0729944
8.196                0.987574539     -27.1197393
8.198                 0.98756797     -27.1664686
8.2                  0.987561095     -27.2131824