! TOUCHSTONE file generated by CST DESIGN STUDIO
! Date and time: Mon Feb 10 16:43:01 2025
! Project name: C:\Work\MatlabApps\UnitCellType2OptimizationMatlab\CST\unitcell.cst
! Tree item: Tasks\Sweep1\SPara1\S-Parameters
! Header version: 2024
! Port assignment regex: !\s*Touchstone port\s*([0-9]+)\s*=\s*(CST MWS port|CST DES external port|CST DES block port)\s*(.+)\s* \(\"(.*)\"\)(\s*mode\s*([0-9]+))?.*
! Touchstone port assignment:
! Touchstone port 1 = CST DES external port 1 ("")
# GHz S MA R 50
7                    0.988264046     -9.21068132
7.002                0.988289706      -9.2295821
7.004                0.988315226      -9.2484726
7.006                0.988340607     -9.26735289
7.008                0.988365849     -9.28622303
7.01                   0.9883951     -9.30523456
7.012                0.988424218     -9.32423571
7.014                0.988453202     -9.34322654
7.016                0.988482054     -9.36220713
7.018                 0.98851415     -9.38136636
7.02                 0.988546117     -9.40051512
7.022                0.988577956     -9.41965347
7.024                0.988609669     -9.43878146
7.026                0.988643788     -9.45810012
7.028                0.988677783     -9.47740822
7.03                 0.988711655      -9.4967058
7.032                0.988745403     -9.51599293
7.034                0.988780903      -9.5354603
7.036                0.988816283     -9.55491692
7.038                0.988851544     -9.57436287
7.04                 0.988886688      -9.5937982
7.042                0.988923243     -9.61339373
7.044                0.988959689     -9.63297834
7.046                0.988996027     -9.65255209
7.048                0.989032257     -9.67211506
7.05                 0.989069923     -9.69182108
7.052                0.989107495     -9.71151616
7.054                0.989144974     -9.73120035
7.056                0.989182361     -9.75087373
7.058                0.989221419     -9.77069012
7.06                   0.9892604     -9.79049572
7.062                0.989299305     -9.81029058
7.064                0.989338134     -9.83007476
7.066                0.989378826     -9.85001937
7.068                0.989419453      -9.8699533
7.07                 0.989460017      -9.8898766
7.072                0.989500518     -9.90978932
7.074                0.989542937     -9.92989303
7.076                0.989585302     -9.94998596
7.078                0.989627612     -9.97006818
7.08                 0.989669869     -9.99013977
7.082                0.989713774     -10.0104381
7.084                0.989757633     -10.0307255
7.086                0.989801447      -10.051002
7.088                0.989845217     -10.0712678
7.09                 0.989890064     -10.0917909
7.092                0.989934875     -10.1123029
7.094                0.989979648     -10.1328041
7.096                0.990024386     -10.1532944
7.098                0.990069465     -10.1740568
7.1                  0.990114513     -10.1948083
7.102                0.990159529     -10.2155489
7.104                0.990204514     -10.2362788
7.106                0.990249103     -10.2572746
7.108                0.990293662     -10.2782596
7.11                  0.99033819     -10.2992338
7.112                 0.99038269     -10.3201972
7.114                0.990426206     -10.3414091
7.116                0.990469695     -10.3626101
7.118                0.990513158     -10.3838002
7.12                 0.990556595     -10.4049796
7.122                 0.99059877     -10.4263814
7.124                0.990640927     -10.4477724
7.126                0.990683067     -10.4691524
7.128                 0.99072519     -10.4905216
7.13                 0.990765993     -10.5120891
7.132                0.990806792     -10.5336458
7.134                0.990847586     -10.5551918
7.136                0.990888376     -10.5767272
7.138                0.990927902     -10.5984542
7.14                 0.990967433     -10.6201708
7.142                0.991006969      -10.641877
7.144                0.991046511     -10.6635729
7.146                0.991084858     -10.6854614
7.148                0.991123216     -10.7073397
7.15                 0.991161586     -10.7292078
7.152                0.991199967     -10.7510658
7.154                0.991237071     -10.7731236
7.156                0.991274191     -10.7951712
7.158                0.991311329     -10.8172087
7.16                 0.991348483      -10.839236
7.162                0.991384099     -10.8614734
7.164                0.991419739     -10.8837007
7.166                0.991455404     -10.9059178
7.168                0.991491093     -10.9281248
7.17                 0.991524879     -10.9505469
7.172                0.991558695     -10.9729592
7.174                 0.99159254     -10.9953617
7.176                0.991626416     -11.0177544
7.178                0.991657919     -11.0403555
7.18                  0.99168945     -11.0629474
7.182                 0.99172101     -11.0855299
7.184                0.991752599     -11.1081031
7.186                0.991781447     -11.1308657
7.188                0.991810319     -11.1536192
7.19                 0.991839214     -11.1763639
7.192                0.991868132     -11.1990996
7.194                0.991894043      -11.222002
7.196                0.991919975     -11.2448956
7.198                0.991945928     -11.2677804
7.2                  0.991971902     -11.2906566
7.202                0.991994806     -11.3136725
7.204                0.992017734     -11.3366799
7.206                0.992040687     -11.3596788
7.208                0.992063665     -11.3826694
7.21                 0.992083654     -11.4057801
7.212                0.992103671      -11.428883
7.214                0.992123717     -11.4519779
7.216                0.992143793      -11.475065
7.218                0.992160955     -11.4982611
7.22                 0.992178145     -11.5214497
7.222                0.992195363     -11.5446311
7.224                0.992212609     -11.5678051
7.226                0.992227055     -11.5910781
7.228                0.992241524      -11.614344
7.23                 0.992256017     -11.6376028
7.232                0.992270533     -11.6608547
7.234                0.992282225     -11.6842007
7.236                0.992293939     -11.7075397
7.238                0.992305676     -11.7308718
7.24                 0.992317435     -11.7541969
7.242                0.992326322     -11.7776098
7.244                0.992335234     -11.8010161
7.246                 0.99234417     -11.8244156
7.248                 0.99235313     -11.8478085
7.25                 0.992359132      -11.871279
7.252                0.992365155     -11.8947434
7.254                  0.9923712     -11.9182018
7.256                0.992377266     -11.9416541
7.258                0.992380282     -11.9651702
7.26                 0.992383307     -11.9886808
7.262                0.992386343     -12.0121861
7.264                0.992389388     -12.0356861
7.266                 0.99238945     -12.0592285
7.268                0.992389507     -12.0827659
7.27                 0.992389561     -12.1062983
7.272                 0.99238961     -12.1298258
7.274                0.992386773     -12.1533737
7.276                0.992383925     -12.1769168
7.278                0.992381065     -12.2004552
7.28                 0.992378195     -12.2239888
7.282                0.992372666      -12.247533
7.284                0.992367123     -12.2710728
7.286                0.992361568     -12.2946083
7.288                0.992356001     -12.3181395
7.29                 0.992348021     -12.3416676
7.292                0.992340023      -12.365192
7.294                0.992332007     -12.3887126
7.296                0.992323973     -12.4122296
7.298                0.992313691     -12.4357405
7.3                  0.992303381      -12.459248
7.302                0.992293041     -12.4827521
7.304                0.992282674     -12.5062527
7.306                0.992270203     -12.5297391
7.308                0.992257697     -12.5532221
7.31                 0.992245155     -12.5767017
7.312                0.992232576     -12.6001778
7.314                0.992218005     -12.6236335
7.316                0.992203398     -12.6470859
7.318                0.992188754      -12.670535
7.32                 0.992174076     -12.6939808
7.322                0.992157515     -12.7173987
7.324                0.992140917     -12.7408138
7.326                0.992124282     -12.7642263
7.328                0.992107612     -12.7876361
7.33                 0.992089212      -12.811004
7.332                0.992070765     -12.8343699
7.334                0.992052269     -12.8577339
7.336                0.992033724     -12.8810959
7.338                0.992013646     -12.9044033
7.34                 0.991993502     -12.9277088
7.342                0.991973293     -12.9510126
7.344                0.991953017     -12.9743145
7.346                0.991931605     -12.9975458
7.348                 0.99191012     -13.0207751
7.35                 0.991888562     -13.0440023
7.352                0.991866932     -13.0672276
7.354                0.991844582     -13.0903854
7.356                 0.99182216     -13.1135413
7.358                0.991799666     -13.1366954
7.36                   0.9917771     -13.1598477
7.362                0.991754218     -13.1829325
7.364                0.991731262     -13.2060158
7.366                0.991708233     -13.2290977
7.368                 0.99168513     -13.2521781
7.37                 0.991662002     -13.2752039
7.372                0.991638797     -13.2982285
7.374                0.991615514     -13.3212517
7.376                0.991592153     -13.3442736
7.378                0.991568873     -13.3672549
7.38                 0.991545513     -13.3902349
7.382                0.991522074     -13.4132137
7.384                0.991498555     -13.4361911
7.386                0.991475227       -13.45913
7.388                0.991451819     -13.4820678
7.39                 0.991428332     -13.5050047
7.392                0.991404765     -13.5279406
7.394                0.991381332     -13.5508462
7.396                0.991357816     -13.5737513
7.398                0.991334217     -13.5966558
7.4                  0.991310535     -13.6195597
7.402                0.991287004     -13.6424253
7.404                0.991263385     -13.6652904
7.406                0.991239676      -13.688155
7.408                0.991215878     -13.7110191
7.41                 0.991192408     -13.7338297
7.412                0.991168847     -13.7566395
7.414                0.991145195     -13.7794486
7.416                0.991121452      -13.802257
7.418                0.991098406     -13.8250048
7.42                 0.991075273     -13.8477518
7.422                0.991052054     -13.8704979
7.424                0.991028751     -13.8932431
7.426                0.991006708     -13.9159253
7.428                0.990984586     -13.9386067
7.43                 0.990962385     -13.9612876
7.432                0.990940104     -13.9839677
7.434                 0.99091957     -14.0066056
7.436                 0.99089896     -14.0292431
7.438                0.990878276     -14.0518801
7.44                 0.990857518     -14.0745166
7.442                 0.99083887     -14.0971361
7.444                0.990820151     -14.1197552
7.446                0.990801361     -14.1423738
7.448                  0.9907825     -14.1649921
7.45                 0.990765896     -14.1876242
7.452                0.990749225     -14.2102559
7.454                0.990732487     -14.2328871
7.456                0.990715682     -14.2555179
7.458                0.990701013      -14.278194
7.46                  0.99068628     -14.3008697
7.462                0.990671483     -14.3235452
7.464                0.990656622     -14.3462203
7.466                0.990643626     -14.3689598
7.468                0.990630568     -14.3916992
7.47                 0.990617448     -14.4144385
7.472                0.990604265     -14.4371776
7.474                0.990592639     -14.4599867
7.476                0.990580952     -14.4827958
7.478                0.990569204     -14.5056047
7.48                 0.990557395     -14.5284134
7.482                0.990546974      -14.551281
7.484                0.990536497     -14.5741482
7.486                0.990525964     -14.5970151
7.488                0.990515375     -14.6198818
7.49                 0.990506244     -14.6427948
7.492                0.990497065     -14.6657075
7.494                 0.99048784     -14.6886197
7.496                0.990478567     -14.7115314
7.498                0.990471116     -14.7344818
7.5                  0.990463629     -14.7574317
7.502                0.990456105     -14.7803813
7.504                0.990448544     -14.8033305
7.506                0.990443277     -14.8263311
7.508                0.990437983     -14.8493314
7.51                 0.990432662     -14.8723315
7.512                0.990427315     -14.8953312
7.514                0.990424714     -14.9184072
7.516                0.990422095      -14.941483
7.518                0.990419458     -14.9645584
7.52                 0.990416803     -14.9876337
7.522                0.990417069     -15.0108275
7.524                0.990417324      -15.034021
7.526                0.990417568     -15.0572143
7.528                0.990417802     -15.0804072
7.53                 0.990420812     -15.1037623
7.532                0.990423815      -15.127117
7.534                0.990426812     -15.1504715
7.536                0.990429802     -15.1738256
7.538                0.990435135     -15.1973755
7.54                 0.990440463     -15.2209251
7.542                0.990445787     -15.2444744
7.544                0.990451106     -15.2680235
7.546                0.990458127     -15.2917906
7.548                0.990465145     -15.3155574
7.55                 0.990472159     -15.3393239
7.552                0.990479171     -15.3630901
7.554                0.990487234      -15.387072
7.556                0.990495297     -15.4110535
7.558                0.990503362     -15.4350346
7.56                 0.990511427     -15.4590153
7.562                0.990520183     -15.4831893
7.564                0.990528948     -15.5073627
7.566                0.990537719     -15.5315356
7.568                0.990546499      -15.555708
7.57                 0.990555927     -15.5800505
7.572                0.990565371     -15.6043924
7.574                 0.99057483     -15.6287336
7.576                0.990584306     -15.6530742
7.578                0.990594741     -15.6775746
7.58                   0.9906052     -15.7020745
7.582                0.990615684     -15.7265737
7.584                0.990626193     -15.7510723
7.586                0.990638154     -15.7757316
7.588                 0.99065015     -15.8003903
7.59                 0.990662179     -15.8250485
7.592                0.990674242     -15.8497061
7.594                0.990688058     -15.8745593
7.596                0.990701915      -15.899412
7.598                0.990715815     -15.9242641
7.6                  0.990729756     -15.9491156
7.602                0.990745578     -15.9741996
7.604                0.990761446     -15.9992831
7.606                 0.99077736     -16.0243661
7.608                0.990793319     -16.0494486
7.61                 0.990810792     -16.0748094
7.612                 0.99082831     -16.1001697
7.614                0.990845874     -16.1255295
7.616                0.990863483     -16.1508887
7.618                0.990881938     -16.1765624
7.62                 0.990900436     -16.2022355
7.622                0.990918978     -16.2279081
7.624                0.990937562       -16.25358
7.626                0.990956118     -16.2795712
7.628                0.990974717     -16.3055617
7.63                 0.990993359     -16.3315515
7.632                0.991012045     -16.3575405
7.634                0.991029891     -16.3838336
7.636                0.991047783     -16.4101258
7.638                0.991065722     -16.4364171
7.64                 0.991083708     -16.4627076
7.642                 0.99110038     -16.4892671
7.644                0.991117102     -16.5158257
7.646                0.991133873     -16.5423834
7.648                0.991150695     -16.5689402
7.65                  0.99116617     -16.5957253
7.652                0.991181698     -16.6225095
7.654                0.991197278     -16.6492929
7.656                0.991212909     -16.6760754
7.658                0.991227577     -16.7030623
7.66                 0.991242299     -16.7300484
7.662                0.991257076     -16.7570337
7.664                0.991271908     -16.7840182
7.666                0.991286353     -16.8112053
7.668                0.991300858     -16.8383916
7.67                 0.991315423     -16.8655771
7.672                0.991330048     -16.8927618
7.674                0.991344675     -16.9201719
7.676                0.991359366     -16.9475812
7.678                0.991374121     -16.9749898
7.68                  0.99138894     -17.0023977
7.682                0.991403886     -17.0300663
7.684                0.991418895     -17.0577342
7.686                0.991433967     -17.0854016
7.688                0.991449102     -17.1130683
7.69                 0.991463982     -17.1410446
7.692                0.991478917     -17.1690203
7.694                0.991493909     -17.1969955
7.696                0.991508956     -17.2249701
7.698                0.991523027     -17.2532723
7.7                  0.991537147     -17.2815739
7.702                0.991551315     -17.3098749
7.704                0.991565533     -17.3381753
7.706                0.991577798     -17.3668051
7.708                 0.99159011     -17.3954341
7.71                 0.991602469     -17.4240624
7.712                0.991614874     -17.4526899
7.714                0.991624551     -17.4816133
7.716                0.991634275     -17.5105358
7.718                0.991644046     -17.5394576
7.72                 0.991653863     -17.5683786
7.722                0.991660527     -17.5975473
7.724                0.991667235     -17.6267153
7.726                0.991673987     -17.6558827
7.728                0.991680782     -17.6850495
7.73                 0.991684579     -17.7144139
7.732                0.991688412     -17.7437778
7.734                0.991692282     -17.7731412
7.736                0.991696189     -17.8025041
7.738                0.991697677     -17.8320265
7.74                 0.991699196     -17.8615485
7.742                0.991700746       -17.89107
7.744                0.991702328     -17.9205909
7.746                0.991702227     -17.9502627
7.748                0.991702157     -17.9799338
7.75                 0.991702117     -18.0096045
7.752                0.991702107     -18.0392745
7.754                0.991701074     -18.0691159
7.756                0.991700071     -18.0989569
7.758                0.991699098     -18.1287974
7.76                 0.991698156     -18.1586374
7.762                0.991696446     -18.1886897
7.764                0.991694761     -18.2187418
7.766                0.991693098     -18.2487937
7.768                 0.99169146     -18.2788454
7.77                 0.991688784     -18.3091476
7.772                0.991686119     -18.3394496
7.774                0.991683466     -18.3697516
7.776                0.991680823     -18.4000535
7.778                0.991676451     -18.4306294
7.78                  0.99167208      -18.461205
7.782                0.991667709     -18.4917804
7.784                0.991663338     -18.5223555
7.786                0.991656367        -18.5532
7.788                0.991649394     -18.5840439
7.79                 0.991642418     -18.6148874
7.792                0.991635439     -18.6457304
7.794                0.991625169     -18.6768009
7.796                0.991614896     -18.7078709
7.798                 0.99160462     -18.7389404
7.8                  0.991594342     -18.7700095
7.802                0.991580515     -18.8012549
7.804                 0.99156668     -18.8325001
7.806                0.991552835      -18.863745
7.808                0.991538981     -18.8949896
7.81                 0.991521924     -18.9263489
7.812                0.991504844      -18.957708
7.814                0.991487743      -18.989067
7.816                0.991470621     -19.0204258
7.818                0.991451111     -19.0518643
7.82                 0.991431568     -19.0833025
7.822                0.991411992     -19.1147404
7.824                0.991392383     -19.1461781
7.826                0.991371434      -19.177688
7.828                0.991350449     -19.2091975
7.83                 0.991329426     -19.2407065
7.832                0.991308367      -19.272215
7.834                0.991286801     -19.3038176
7.836                0.991265196     -19.3354197
7.838                0.991243553     -19.3670215
7.84                 0.991221871     -19.3986229
7.842                0.991200134     -19.4303671
7.844                0.991178351     -19.4621112
7.846                0.991156522     -19.4938551
7.848                0.991134648     -19.5255989
7.85                 0.991112582     -19.5575356
7.852                0.991090459     -19.5894723
7.854                0.991068279     -19.6214089
7.856                0.991046042     -19.6533454
7.858                0.991022939     -19.6855008
7.86                 0.990999772     -19.7176557
7.862                0.990976542     -19.7498103
7.864                0.990953248     -19.7819644
7.866                0.990928333     -19.8143341
7.868                 0.99090336     -19.8467029
7.87                 0.990878327     -19.8790709
7.872                0.990853236      -19.911438
7.874                 0.99082583     -19.9439916
7.876                0.990798373     -19.9765442
7.878                0.990770867     -20.0090957
7.88                  0.99074331     -20.0416462
7.882                0.990713324     -20.0743264
7.884                0.990683289     -20.1070058
7.886                0.990653205     -20.1396843
7.888                0.990623071     -20.1723618
7.89                 0.990590951     -20.2051134
7.892                0.990558772     -20.2378642
7.894                0.990526532     -20.2706142
7.896                0.990494234     -20.3033634
7.898                0.990460928     -20.3361571
7.9                  0.990427549     -20.3689499
7.902                0.990394098     -20.4017417
7.904                0.990360575     -20.4345325
7.906                0.990327231     -20.4673654
7.908                0.990293809     -20.5001971
7.91                 0.990260309     -20.5330276
7.912                 0.99022673     -20.5658568
7.914                0.990194361     -20.5987666
7.916                0.990161913     -20.6316752
7.918                0.990129387     -20.6645826
7.92                 0.990096781     -20.6974887
7.922                0.990065863     -20.7305337
7.924                0.990034865     -20.7635778
7.926                0.990003786      -20.796621
7.928                0.989972626     -20.8296631
7.93                 0.989943049     -20.8629042
7.932                0.989913388     -20.8961443
7.934                0.989883645     -20.9293836
7.936                0.989853819     -20.9626219
7.938                0.989824898     -20.9961027
7.94                 0.989795901     -21.0295821
7.942                0.989766827     -21.0630602
7.944                0.989737678     -21.0965369
7.946                0.989708518     -21.1302572
7.948                0.989679303     -21.1639755
7.95                 0.989650033     -21.1976916
7.952                0.989620708     -21.2314057
7.954                0.989590673     -21.2653441
7.956                0.989560611       -21.29928
7.958                0.989530522     -21.3332135
7.96                 0.989500405     -21.3671444
7.962                0.989469384     -21.4012516
7.964                0.989438352     -21.4353563
7.966                0.989407309     -21.4694586
7.968                0.989376255     -21.5035584
7.97                 0.989344724     -21.5377879
7.972                0.989313178     -21.5720152
7.974                0.989281615     -21.6062401
7.976                0.989250037     -21.6404628
7.978                0.989218973     -21.6747893
7.98                 0.989187874     -21.7091135
7.982                 0.98915674     -21.7434353
7.984                0.989125571     -21.7777548
7.986                0.989096119     -21.8121916
7.988                0.989066612     -21.8466259
7.99                 0.989037051     -21.8810576
7.992                0.989007435     -21.9154869
7.994                0.988980539     -21.9500799
7.996                 0.98895358     -21.9846705
7.998                0.988926556     -22.0192585
8                    0.988899467      -22.053844
8.002                0.988875578     -22.0886648
8.004                0.988851625     -22.1234832
8.006                 0.98882761     -22.1582994
8.008                0.988803532     -22.1931133
8.01                 0.988782303     -22.2282378
8.012                0.988761022       -22.26336
8.014                 0.98873969     -22.2984801
8.016                0.988718307     -22.3335981
8.018                0.988698915     -22.3690688
8.02                 0.988679496     -22.4045368
8.022                 0.98866005     -22.4400021
8.024                0.988640578     -22.4754648
8.026                0.988621954     -22.5112991
8.028                0.988603345     -22.5471299
8.03                 0.988584752      -22.582957
8.032                0.988566174     -22.6187807
8.034                0.988547584     -22.6549477
8.036                0.988529061     -22.6911103
8.038                0.988510606     -22.7272685
8.04                 0.988492217     -22.7634221
8.042                0.988473408     -22.7998798
8.044                0.988454707     -22.8363327
8.046                0.988436114     -22.8727807
8.048                 0.98841763     -22.9092241
8.05                 0.988399052     -22.9459386
8.052                0.988380587     -22.9826488
8.054                0.988362233     -23.0193544
8.056                0.988343992     -23.0560556
8.058                0.988326514      -23.092997
8.06                 0.988309102     -23.1299343
8.062                0.988291755     -23.1668676
8.064                0.988274473     -23.2037969
8.066                0.988259179     -23.2409902
8.068                0.988243874     -23.2781795
8.07                 0.988228557     -23.3153649
8.072                0.988213228     -23.3525463
8.074                 0.98820096     -23.3900377
8.076                0.988188619     -23.4275246
8.078                0.988176206     -23.4650072
8.08                  0.98816372     -23.5024853
8.082                0.988154628     -23.5403558
8.084                0.988145458     -23.5782215
8.086                 0.98813621     -23.6160824
8.088                0.988126882     -23.6539383
8.09                 0.988120352     -23.6922704
8.092                0.988113789     -23.7305976
8.094                0.988107194     -23.7689199
8.096                0.988100567     -23.8072373
8.098                0.988095445     -23.8460709
8.1                  0.988090355     -23.8848995
8.102                0.988085297     -23.9237232
8.104                0.988080272     -23.9625419
8.106                0.988075324     -24.0018821
8.108                0.988070462     -24.0412162
8.11                 0.988065686     -24.0805443
8.112                0.988060997     -24.1198665
8.114                0.988055362     -24.1596866
8.116                0.988049871     -24.1994973
8.118                0.988044521     -24.2392983
8.12                 0.988039314     -24.2790899
8.122                0.988032647     -24.3193431
8.124                0.988026246     -24.3595798
8.126                0.988020111     -24.3998002
8.128                 0.98801424     -24.4400041
8.13                 0.988006615     -24.4806608
8.132                0.987999494     -24.5212932
8.134                0.987992877     -24.5619011
8.136                0.987986761     -24.6024844
8.138                0.987978769     -24.6435033
8.14                 0.987971544     -24.6844938
8.142                0.987965085     -24.7254553
8.144                0.987959389     -24.7663878
8.146                0.987952212     -24.8077704
8.148                0.987945854     -24.8491282
8.15                 0.987940314     -24.8904609
8.152                0.987935591     -24.9317681
8.154                0.987930653     -24.9735438
8.156                0.987926214     -25.0153046
8.158                0.987922274     -25.0570501
8.16                 0.987918833     -25.0987805
8.162                 0.98791699      -25.141011
8.164                0.987915078     -25.1832349
8.166                0.987913095     -25.2254524
8.168                0.987911042     -25.2676632
8.17                 0.987912002     -25.3104579
8.172                 0.98791239     -25.3532475
8.174                0.987912204      -25.396032
8.176                0.987911443     -25.4388111
8.178                0.987913588     -25.4822461
8.18                 0.987914949     -25.5256714
8.182                0.987915522     -25.5690867
8.184                0.987915308     -25.6124916
8.186                0.987916516     -25.6565927
8.188                0.987917021     -25.7006785
8.19                 0.987916821     -25.7447489
8.192                0.987915917     -25.7888034
8.194                0.987914391     -25.8335344
8.196                  0.9879124     -25.8782483
8.198                0.987909945     -25.9229447
8.2                  0.987907026     -25.9676234