! TOUCHSTONE file generated by CST DESIGN STUDIO
! Date and time: Mon Feb 10 16:42:54 2025
! Project name: C:\Work\MatlabApps\UnitCellType2OptimizationMatlab\CST\unitcell.cst
! Tree item: Tasks\Sweep1\SPara1\S-Parameters
! Header version: 2024
! Port assignment regex: !\s*Touchstone port\s*([0-9]+)\s*=\s*(CST MWS port|CST DES external port|CST DES block port)\s*(.+)\s* \(\"(.*)\"\)(\s*mode\s*([0-9]+))?.*
! Touchstone port assignment:
! Touchstone port 1 = CST DES external port 1 ("")
# GHz S MA R 50
7                    0.994012296     -12.5460634
7.002                0.994001193     -12.5629587
7.004                0.993990066     -12.5798545
7.006                0.993978915     -12.5967508
7.008                0.993967741     -12.6136477
7.01                 0.993959014     -12.6306089
7.012                0.993950268     -12.6475708
7.014                0.993941502     -12.6645331
7.016                0.993932717     -12.6814959
7.018                0.993926203     -12.6985386
7.02                 0.993919674     -12.7155818
7.022                 0.99391313     -12.7326255
7.024                0.993906571     -12.7496696
7.026                0.993902106     -12.7668014
7.028                0.993897631     -12.7839337
7.03                 0.993893145     -12.8010664
7.032                0.993888649     -12.8181995
7.034                0.993886168     -12.8354237
7.036                 0.99388368     -12.8526484
7.038                0.993881187     -12.8698734
7.04                 0.993878687      -12.887099
7.042                0.993878193     -12.9044194
7.044                0.993877697     -12.9217402
7.046                  0.9938772     -12.9390615
7.048                  0.9938767     -12.9563832
7.05                 0.993878282     -12.9738064
7.052                0.993879867       -12.99123
7.054                0.993881454      -13.008654
7.056                0.993883043     -13.0260784
7.058                0.993886799     -13.0436187
7.06                 0.993890563     -13.0611594
7.062                0.993894334     -13.0787004
7.064                0.993898114     -13.0962417
7.066                0.993904064     -13.1139179
7.068                0.993910029     -13.1315943
7.07                 0.993916007     -13.1492711
7.072                0.993921999     -13.1669481
7.074                0.993930102      -13.184779
7.076                0.993938224     -13.2026102
7.078                0.993946365     -13.2204417
7.08                 0.993954525     -13.2382734
7.082                 0.99396459     -13.2562785
7.084                0.993974678     -13.2742838
7.086                0.993984788     -13.2922893
7.088                0.993994922     -13.3102951
7.09                 0.994006669     -13.3284909
7.092                0.994018443     -13.3466869
7.094                0.994030243     -13.3648831
7.096                0.994042069     -13.3830794
7.098                0.994055194     -13.4014752
7.1                  0.994068348     -13.4198711
7.102                0.994081532     -13.4382671
7.104                0.994094745     -13.4566632
7.106                0.994108966     -13.4752598
7.108                 0.99412322     -13.4938564
7.11                 0.994137506     -13.5124531
7.112                0.994151825     -13.5310498
7.114                0.994166928     -13.5498495
7.116                0.994182067     -13.5686491
7.118                0.994197241     -13.5874488
7.12                  0.99421245     -13.6062485
7.122                 0.99422831     -13.6252496
7.124                0.994244209     -13.6442507
7.126                0.994260145     -13.6632517
7.128                 0.99427612     -13.6822529
7.13                  0.99429265     -13.7014541
7.132                0.994309222     -13.7206552
7.134                0.994325834     -13.7398563
7.136                0.994342487     -13.7590574
7.138                0.994359595     -13.7784676
7.14                 0.994376747     -13.7978778
7.142                0.994393943     -13.8172878
7.144                0.994411182     -13.8366978
7.146                0.994428764     -13.8563238
7.148                0.994446392     -13.8759497
7.15                 0.994464067     -13.8955755
7.152                0.994481789     -13.9152012
7.154                0.994499645     -13.9350505
7.156                0.994517551     -13.9548996
7.158                0.994535504     -13.9747486
7.16                 0.994553507     -13.9945975
7.162                 0.99457139     -14.0146755
7.164                0.994589324     -14.0347534
7.166                0.994607306     -14.0548311
7.168                0.994625339     -14.0749086
7.17                 0.994642972     -14.0952198
7.172                0.994660655     -14.1155308
7.174                0.994678388     -14.1358416
7.176                0.994696171     -14.1561522
7.178                0.994713262     -14.1766926
7.18                 0.994730403     -14.1972328
7.182                0.994747593     -14.2177728
7.184                0.994764834     -14.2383126
7.186                0.994781159     -14.2590742
7.188                0.994797533     -14.2798357
7.19                 0.994813956      -14.300597
7.192                 0.99483043      -14.321358
7.194                 0.99484581     -14.3423357
7.196                0.994861238     -14.3633131
7.198                0.994876716     -14.3842904
7.2                  0.994892241     -14.4052675
7.202                0.994906551     -14.4264534
7.204                0.994920908     -14.4476392
7.206                0.994935312     -14.4688248
7.208                0.994949764     -14.4900103
7.21                 0.994962908     -14.5113988
7.212                0.994976097     -14.5327872
7.214                0.994989333     -14.5541755
7.216                0.995002615     -14.5755636
7.218                0.995014482      -14.597154
7.22                 0.995026393     -14.6187442
7.222                0.995038349     -14.6403344
7.224                0.995050349     -14.6619244
7.226                0.995060844     -14.6837102
7.228                0.995071381     -14.7054959
7.23                  0.99508196     -14.7272816
7.232                0.995092581     -14.7490671
7.234                0.995101544     -14.7710447
7.236                0.995110546     -14.7930223
7.238                0.995119588     -14.8149997
7.24                 0.995128669     -14.8369771
7.242                0.995135945      -14.859141
7.244                0.995143257     -14.8813049
7.246                0.995150605     -14.9034687
7.248                0.995157988     -14.9256324
7.25                 0.995163434     -14.9479741
7.252                0.995168911     -14.9703158
7.254                0.995174419     -14.9926575
7.256                 0.99517996     -15.0149992
7.258                0.995183457     -15.0375101
7.26                  0.99518698      -15.060021
7.262                0.995190531      -15.082532
7.264                 0.99519411      -15.105043
7.266                0.995195625     -15.1277089
7.268                0.995197163     -15.1503749
7.27                 0.995198724      -15.173041
7.272                0.995200307     -15.1957072
7.274                0.995199803     -15.2185166
7.276                0.995199316     -15.2413261
7.278                0.995198847     -15.2641358
7.28                 0.995198396     -15.2869456
7.282                0.995195896     -15.3098956
7.284                0.995193409     -15.3328457
7.286                0.995190934      -15.355796
7.288                0.995188471     -15.3787465
7.29                 0.995183983     -15.4018256
7.292                0.995179502      -15.424905
7.294                0.995175028     -15.4479846
7.296                0.995170563     -15.4710643
7.298                0.995164066     -15.4942683
7.3                  0.995157572     -15.5174725
7.302                 0.99515108     -15.5406769
7.304                0.995144591     -15.5638816
7.306                0.995136072     -15.5872007
7.308                 0.99512755       -15.61052
7.31                 0.995119025     -15.6338397
7.312                0.995110496     -15.6571596
7.314                0.995099946     -15.6805847
7.316                0.995089388     -15.7040101
7.318                0.995078821     -15.7274358
7.32                 0.995068245     -15.7508618
7.322                0.995055667     -15.7743845
7.324                0.995043075     -15.7979076
7.326                0.995030469     -15.8214311
7.328                0.995017849     -15.8449548
7.33                 0.995003322     -15.8685606
7.332                0.994988775     -15.8921667
7.334                0.994974209     -15.9157731
7.336                0.994959624     -15.9393799
7.338                0.994943258     -15.9630596
7.34                 0.994926867     -15.9867396
7.342                0.994910451       -16.01042
7.344                0.994894012     -16.0341007
7.346                0.994875998     -16.0578421
7.348                0.994857956     -16.0815839
7.35                 0.994839885      -16.105326
7.352                0.994821784     -16.1290686
7.354                0.994802298     -16.1528767
7.356                0.994782778     -16.1766851
7.358                0.994763224      -16.200494
7.36                 0.994743638     -16.2243032
7.362                0.994722817     -16.2481698
7.364                0.994701959     -16.2720369
7.366                0.994681065     -16.2959042
7.368                0.994660133      -16.319772
7.37                 0.994638105     -16.3436984
7.372                0.994616037     -16.3676252
7.374                 0.99459393     -16.3915523
7.376                0.994571782     -16.4154797
7.378                0.994548582     -16.4394684
7.38                 0.994525338     -16.4634575
7.382                0.994502051     -16.4874469
7.384                0.994478721     -16.5114366
7.386                0.994454435     -16.5354759
7.388                0.994430103     -16.5595156
7.39                 0.994405725     -16.5835555
7.392                  0.9943813     -16.6075958
7.394                0.994355967     -16.6316876
7.396                0.994330584     -16.6557797
7.398                0.994305153     -16.6798721
7.4                  0.994279673     -16.7039648
7.402                0.994253426     -16.7280979
7.404                0.994227128     -16.7522313
7.406                0.994200779     -16.7763649
7.408                 0.99417438     -16.8004988
7.41                  0.99414745     -16.8246627
7.412                0.994120469     -16.8488268
7.414                0.994093435     -16.8729911
7.416                0.994066348     -16.8971557
7.418                0.994039007     -16.9213505
7.42                 0.994011613     -16.9455456
7.422                0.993984166     -16.9697409
7.424                0.993956666     -16.9939365
7.426                0.993929256     -17.0181603
7.428                0.993901794     -17.0423843
7.43                 0.993874278     -17.0666086
7.432                 0.99384671      -17.090833
7.434                0.993819486     -17.1150985
7.436                 0.99379221     -17.1393642
7.438                0.993764883       -17.16363
7.44                 0.993737503     -17.1878959
7.442                0.993710668     -17.2122128
7.444                0.993683782     -17.2365297
7.446                0.993656846     -17.2608468
7.448                 0.99362986      -17.285164
7.45                 0.993603532     -17.3095421
7.452                0.993577155     -17.3339202
7.454                 0.99355073     -17.3582985
7.456                0.993524257     -17.3826768
7.458                 0.99349844      -17.407129
7.46                 0.993472575     -17.4315813
7.462                0.993446664     -17.4560336
7.464                0.993420705      -17.480486
7.466                0.993395381     -17.5050165
7.468                0.993370012     -17.5295471
7.47                 0.993344596     -17.5540778
7.472                0.993319135     -17.5786085
7.474                0.993294331     -17.6032179
7.476                0.993269483     -17.6278273
7.478                 0.99324459     -17.6524368
7.48                 0.993219654     -17.6770462
7.482                0.993195487     -17.7017282
7.484                0.993171278     -17.7264102
7.486                0.993147027     -17.7510922
7.488                0.993122735     -17.7757741
7.49                 0.993099431     -17.8005285
7.492                0.993076087     -17.8252829
7.494                0.993052706     -17.8500372
7.496                0.993029285     -17.8747916
7.498                0.993007143     -17.8996221
7.5                  0.992984966     -17.9244525
7.502                0.992962754     -17.9492829
7.504                0.992940507     -17.9741133
7.506                0.992919826     -17.9990365
7.508                0.992899115     -18.0239597
7.51                 0.992878372     -18.0488828
7.512                0.992857599     -18.0738058
7.514                0.992838624     -18.0988373
7.516                0.992819623     -18.1238686
7.518                0.992800596     -18.1488998
7.52                 0.992781543     -18.1739309
7.522                0.992764375     -18.1990967
7.524                0.992747187     -18.2242625
7.526                0.992729978      -18.249428
7.528                0.992712748     -18.2745935
7.53                  0.99269731     -18.2999156
7.532                0.992681855     -18.3252376
7.534                0.992666384     -18.3505594
7.536                0.992650896      -18.375881
7.538                0.992637029     -18.4013737
7.54                 0.992623149     -18.4268663
7.542                0.992609256     -18.4523587
7.544                0.992595349     -18.4778509
7.546                0.992582841     -18.5035263
7.548                0.992570322     -18.5292015
7.55                 0.992557794     -18.5548765
7.552                0.992545255     -18.5805513
7.554                0.992533942     -18.6064106
7.556                0.992522621     -18.6322697
7.558                0.992511294     -18.6581285
7.56                  0.99249996     -18.6839871
7.562                0.992489855      -18.710023
7.564                0.992479747     -18.7360586
7.566                0.992469637     -18.7620939
7.568                0.992459523      -18.788129
7.57                 0.992450746     -18.8143418
7.572                0.992441969     -18.8405543
7.574                0.992433193     -18.8667666
7.576                0.992424418     -18.8929786
7.578                0.992417187     -18.9193788
7.58                 0.992409962     -18.9457788
7.582                0.992402742     -18.9721784
7.584                0.992395526     -18.9985777
7.586                0.992390101     -19.0251744
7.588                0.992384687     -19.0517708
7.59                 0.992379283     -19.0783669
7.592                0.992373889     -19.1049626
7.594                0.992370327      -19.131789
7.596                0.992366781      -19.158615
7.598                0.992363251     -19.1854406
7.6                  0.992359737     -19.2122658
7.602                0.992358009     -19.2393424
7.604                0.992356303     -19.2664187
7.606                0.992354617     -19.2934945
7.608                0.992352952     -19.3205699
7.61                 0.992352779      -19.347924
7.612                0.992352631     -19.3752776
7.614                0.992352506     -19.4026308
7.616                0.992352405     -19.4299836
7.618                0.992353408     -19.4576354
7.62                 0.992354438     -19.4852868
7.622                0.992355493     -19.5129377
7.624                0.992356575     -19.5405881
7.626                0.992358341     -19.5685365
7.628                0.992360135     -19.5964843
7.63                 0.992361957     -19.6244315
7.632                0.992363808     -19.6523783
7.634                0.992366027     -19.6806189
7.636                0.992368277     -19.7088588
7.638                0.992370557     -19.7370982
7.64                 0.992372867      -19.765337
7.642                 0.99237541     -19.7938598
7.644                0.992377986      -19.822382
7.646                0.992380593     -19.8509036
7.648                0.992383233     -19.8794245
7.65                 0.992386146     -19.9082189
7.652                0.992389092     -19.9370125
7.654                0.992392073     -19.9658056
7.656                0.992395087     -19.9945979
7.658                0.992398553     -20.0236692
7.66                 0.992402054     -20.0527397
7.662                0.992405592     -20.0818096
7.664                0.992409165     -20.1108788
7.666                0.992413378     -20.1402392
7.668                0.992417631     -20.1695988
7.67                 0.992421922     -20.1989577
7.672                0.992426252     -20.2283158
7.674                0.992431222     -20.2579869
7.676                0.992436234     -20.2876572
7.678                0.992441288     -20.3173266
7.68                 0.992446384     -20.3469953
7.682                0.992451951     -20.3769977
7.684                0.992457562     -20.4069993
7.686                0.992463217     -20.4370001
7.688                0.992468916         -20.467
7.69                 0.992474712     -20.4973636
7.692                0.992480551     -20.5277264
7.694                0.992486435     -20.5580883
7.696                0.992492363     -20.5884494
7.698                0.992497882     -20.6191752
7.7                  0.992503444     -20.6499001
7.702                0.992509048     -20.6806241
7.704                0.992514695     -20.7113472
7.706                0.992519397     -20.7424341
7.708                0.992524141     -20.7735199
7.71                 0.992528926     -20.8046048
7.712                0.992533752     -20.8356887
7.714                0.992537296     -20.8671175
7.716                0.992540881     -20.8985452
7.718                0.992544505     -20.9299718
7.72                 0.992548169     -20.9613974
7.722                0.992550399     -20.9931476
7.724                0.992552667     -21.0248967
7.726                0.992554972     -21.0566447
7.728                0.992557315     -21.0883916
7.73                 0.992558345     -21.1204483
7.732                0.992559408     -21.1525038
7.734                0.992560507     -21.1845584
7.736                0.992561639     -21.2166118
7.738                0.992561707     -21.2489667
7.74                 0.992561807     -21.2813204
7.742                0.992561938     -21.3136731
7.744                0.992562102     -21.3460247
7.746                0.992561404     -21.3786828
7.748                0.992560737     -21.4113398
7.75                   0.9925601     -21.4439955
7.752                0.992559495     -21.4766502
7.754                0.992558168     -21.5096312
7.756                0.992556873     -21.5426109
7.758                0.992555607     -21.5755895
7.76                 0.992554372     -21.6085668
7.762                 0.99255227     -21.6418933
7.764                0.992550197     -21.6752186
7.766                0.992548151     -21.7085426
7.768                0.992546134     -21.7418654
7.77                 0.992542882      -21.775551
7.772                0.992539654     -21.8092354
7.774                 0.99253645     -21.8429184
7.776                 0.99253327     -21.8766002
7.778                0.992528353     -21.9106487
7.78                 0.992523454     -21.9446959
7.782                0.992518574     -21.9787416
7.784                0.992513712      -22.012786
7.786                0.992506659     -22.0471864
7.788                0.992499621     -22.0815853
7.79                 0.992492595     -22.1159826
7.792                0.992485583     -22.1503786
7.794                0.992476081     -22.1851001
7.796                0.992466587       -22.21982
7.798                0.992457102     -22.2545384
7.8                  0.992447626     -22.2892552
7.802                0.992435641     -22.3242753
7.804                0.992423659     -22.3592938
7.806                0.992411679     -22.3943108
7.808                0.992399701     -22.4293262
7.81                 0.992385467     -22.4646155
7.812                0.992371229     -22.4999033
7.814                0.992356986     -22.5351895
7.816                0.992342738     -22.5704742
7.818                0.992326661     -22.6060242
7.82                 0.992310574     -22.6415725
7.822                0.992294475     -22.6771191
7.824                0.992278366     -22.7126642
7.826                 0.99226086     -22.7484803
7.828                0.992243339     -22.7842946
7.83                 0.992225804     -22.8201072
7.832                0.992208256     -22.8559181
7.834                0.992189535     -22.8920145
7.836                0.992170798     -22.9281091
7.838                0.992152044     -22.9642018
7.84                 0.992133275     -23.0002927
7.842                 0.99211333     -23.0366952
7.844                0.992093365     -23.0730959
7.846                 0.99207338     -23.1094947
7.848                0.992053375     -23.1458915
7.85                 0.992031951     -23.1826184
7.852                0.992010501     -23.2193434
7.854                0.991989026     -23.2560663
7.856                0.991967526     -23.2927872
7.858                0.991944134     -23.3298376
7.86                  0.99192071     -23.3668858
7.862                0.991897254     -23.4039318
7.864                0.991873767     -23.4409757
7.866                0.991848074     -23.4783334
7.868                0.991822345     -23.5156889
7.87                  0.99179658     -23.5530419
7.872                0.991770778     -23.5903926
7.874                 0.99174255     -23.6280375
7.876                0.991714281       -23.66568
7.878                0.991685972       -23.70332
7.88                 0.991657622     -23.7409575
7.882                0.991627002     -23.7788549
7.884                0.991596336     -23.8167498
7.886                0.991565624     -23.8546421
7.888                0.991534865     -23.8925319
7.89                 0.991502226     -23.9306548
7.892                0.991469533     -23.9687751
7.894                0.991436788     -24.0068928
7.896                 0.99140399     -24.0450079
7.898                0.991369923      -24.083352
7.9                  0.991335799     -24.1216933
7.902                0.991301618     -24.1600318
7.904                0.991267378     -24.1983677
7.906                0.991232461     -24.2369382
7.908                0.991197484     -24.2755059
7.91                 0.991162449     -24.3140706
7.912                0.991127354     -24.3526324
7.914                0.991091991     -24.3914583
7.916                 0.99105657     -24.4302812
7.918                 0.99102109      -24.469101
7.92                 0.990985551     -24.5079178
7.922                0.990949816     -24.5470277
7.924                0.990914023     -24.5861344
7.926                 0.99087817      -24.625238
7.928                0.990842258     -24.6643385
7.93                 0.990805968     -24.7037566
7.932                0.990769617     -24.7431715
7.934                0.990733205     -24.7825831
7.936                0.990696731     -24.8219914
7.938                0.990659527     -24.8617293
7.94                 0.990622259     -24.9014636
7.942                0.990584928     -24.9411944
7.944                0.990547534     -24.9809218
7.946                0.990509037     -25.0209653
7.948                0.990470476      -25.061005
7.95                 0.990431853      -25.101041
7.952                0.990393166     -25.1410731
7.954                0.990353268     -25.1814079
7.956                0.990313308     -25.2217387
7.958                0.990273286     -25.2620655
7.96                 0.990233202     -25.3023883
7.962                0.990192101     -25.3429867
7.964                0.990150938     -25.3835808
7.966                0.990109712     -25.4241709
7.968                0.990068423     -25.4647568
7.97                 0.990026604      -25.505599
7.972                0.989984721     -25.5464369
7.974                0.989942772     -25.5872706
7.976                0.989900758     -25.6281001
7.978                0.989858902     -25.6691843
7.98                  0.98981698     -25.7102642
7.982                0.989774991     -25.7513397
7.984                0.989732936     -25.7924109
7.986                0.989691694     -25.8337607
7.988                0.989650388      -25.875106
7.99                 0.989609017     -25.9164469
7.992                0.989567581     -25.9577832
7.994                0.989527365     -25.9994344
7.996                0.989487087      -26.041081
7.998                0.989446749      -26.082723
8                    0.989406349     -26.1243604
8.002                0.989367296     -26.1663545
8.004                0.989328187     -26.2083439
8.006                 0.98928902     -26.2503286
8.008                0.989249797     -26.2923086
8.01                 0.989211597     -26.3346853
8.012                0.989173344     -26.3770572
8.014                0.989135038     -26.4194241
8.016                0.989096677     -26.4617862
8.018                0.989058955     -26.5045564
8.02                 0.989021182     -26.5473214
8.022                 0.98898336     -26.5900812
8.024                0.988945488     -26.6328358
8.026                0.988907795     -26.6760074
8.028                0.988870059     -26.7191734
8.03                 0.988832278     -26.7623339
8.032                0.988794454     -26.8054889
8.034                0.988756657     -26.8490389
8.036                0.988718823      -26.892583
8.038                0.988680952     -26.9361212
8.04                 0.988643043     -26.9796535
8.042                0.988605255     -27.0235647
8.044                0.988567435     -27.0674698
8.046                0.988529582     -27.1113688
8.048                0.988491697     -27.1552617
8.05                 0.988454439      -27.199533
8.052                0.988417151     -27.2437981
8.054                0.988379831      -27.288057
8.056                 0.98834248     -27.3323097
8.058                 0.98830636     -27.3769362
8.06                 0.988270208     -27.4215564
8.062                0.988234024     -27.4661704
8.064                0.988197808     -27.5107781
8.066                0.988163427     -27.5558021
8.068                0.988129014     -27.6008199
8.07                 0.988094568     -27.6458314
8.072                0.988060089     -27.6908366
8.074                0.988027808     -27.7362955
8.076                0.987995496     -27.7817481
8.078                0.987963153     -27.8271942
8.08                 0.987930779      -27.872634
8.082                0.987900505     -27.9185836
8.084                0.987870204     -27.9645266
8.086                0.987839877      -28.010463
8.088                0.987809523     -28.0563929
8.09                 0.987780818     -28.1028824
8.092                0.987752095      -28.149365
8.094                0.987723352     -28.1958407
8.096                0.987694592     -28.2423096
8.098                0.987666866     -28.2893544
8.1                  0.987639131     -28.3363917
8.102                0.987611387     -28.3834217
8.104                0.987583634     -28.4304443
8.106                0.987556275     -28.4780471
8.108                0.987528916      -28.525642
8.11                 0.987501557      -28.573229
8.112                0.987474198     -28.6208081
8.114                0.987446922     -28.6689585
8.116                0.987419651     -28.7171004
8.118                0.987392388     -28.7652339
8.12                  0.98736513     -28.8133588
8.122                0.987338028     -28.8620328
8.124                0.987310941     -28.9106972
8.126                 0.98728387      -28.959352
8.128                0.987256813     -29.0079973
8.13                 0.987230223     -29.0571984
8.132                0.987203666     -29.1063885
8.134                0.987177143     -29.1555675
8.136                0.987150653     -29.2047353
8.138                0.987125067      -29.254456
8.14                  0.98709954      -29.304164
8.142                0.987074073     -29.3538595
8.144                0.987048663     -29.4035424
8.146                0.987024686     -29.4538229
8.148                0.987000783     -29.5040907
8.15                 0.986976954     -29.5543456
8.152                  0.9869532     -29.6045878
8.154                0.986931197      -29.655479
8.156                0.986909255     -29.7063591
8.158                0.986887373     -29.7572277
8.16                 0.986865551     -29.8080849
8.162                0.986845462     -29.8596361
8.164                0.986825389     -29.9111779
8.166                0.986805334     -29.9627104
8.168                0.986785296     -30.0142336
8.17                 0.986766586     -30.0665146
8.172                0.986747845     -30.1187875
8.174                0.986729072     -30.1710523
8.176                0.986710268      -30.223309
8.178                0.986691943     -30.2763437
8.18                 0.986673558     -30.3293699
8.182                0.986655115     -30.3823876
8.184                0.986636611     -30.4353967
8.186                0.986617747     -30.4891886
8.188                0.986598826     -30.5429707
8.19                 0.986579848      -30.596743
8.192                0.986560814     -30.6505053
8.194                0.986540773     -30.7050433
8.196                  0.9865207     -30.7595703
8.198                0.986500594     -30.8140861
8.2                  0.986480456     -30.8685907