! TOUCHSTONE file generated by CST DESIGN STUDIO
! Date and time: Mon Feb 10 16:42:47 2025
! Project name: C:\Work\MatlabApps\UnitCellType2OptimizationMatlab\CST\unitcell.cst
! Tree item: Tasks\Sweep1\SPara1\S-Parameters
! Header version: 2024
! Port assignment regex: !\s*Touchstone port\s*([0-9]+)\s*=\s*(CST MWS port|CST DES external port|CST DES block port)\s*(.+)\s* \(\"(.*)\"\)(\s*mode\s*([0-9]+))?.*
! Touchstone port assignment:
! Touchstone port 1 = CST DES external port 1 ("")
# GHz S MA R 50
7                    0.996032944     -14.0750139
7.002                0.996026307     -14.0943356
7.004                0.996019669      -14.113683
7.006                0.996013031      -14.133056
7.008                0.996006391     -14.1524549
7.01                 0.995999751     -14.1718796
7.012                 0.99599311     -14.1913303
7.014                0.995986467     -14.2108069
7.016                0.995979823     -14.2303097
7.018                0.995973179     -14.2498385
7.02                 0.995966532     -14.2693936
7.022                0.995959885      -14.288975
7.024                0.995953236     -14.3085827
7.026                0.995946585     -14.3282169
7.028                0.995939932     -14.3478775
7.03                 0.995933278     -14.3675647
7.032                0.995926622     -14.3872786
7.034                0.995919964     -14.4070192
7.036                0.995913304     -14.4267866
7.038                0.995906642     -14.4465809
7.04                 0.995899978     -14.4664021
7.042                0.995893312     -14.4862503
7.044                0.995886643     -14.5061256
7.046                0.995879972      -14.526028
7.048                0.995873298     -14.5459577
7.05                 0.995866622     -14.5659147
7.052                0.995859943     -14.5858991
7.054                0.995853261      -14.605911
7.056                0.995846576     -14.6259504
7.058                0.995839888     -14.6460174
7.06                 0.995833198     -14.6661121
7.062                0.995826504     -14.6862346
7.064                0.995819807     -14.7063849
7.066                0.995813107     -14.7265632
7.068                0.995806403     -14.7467694
7.07                 0.995799696     -14.7670037
7.072                0.995792985     -14.7872662
7.074                0.995786271     -14.8075569
7.076                0.995779553     -14.8278759
7.078                0.995772831     -14.8482233
7.08                 0.995766105     -14.8685992
7.082                0.995759375     -14.8890036
7.084                0.995752641     -14.9094367
7.086                0.995745903     -14.9298985
7.088                0.995739161      -14.950389
7.09                 0.995732414     -14.9709084
7.092                0.995725663     -14.9914568
7.094                0.995718907     -15.0120342
7.096                0.995712146     -15.0326407
7.098                0.995705381     -15.0532764
7.1                  0.995698611     -15.0739414
7.102                0.995691836     -15.0946357
7.104                0.995685056     -15.1153595
7.106                0.995678271     -15.1361128
7.108                0.995671481     -15.1568957
7.11                 0.995664685     -15.1777083
7.112                0.995657884     -15.1985507
7.114                0.995651078     -15.2194229
7.116                0.995644266     -15.2403251
7.118                0.995637448     -15.2612573
7.12                 0.995630625     -15.2822196
7.122                0.995623795     -15.3032121
7.124                 0.99561696     -15.3242348
7.126                0.995610119      -15.345288
7.128                0.995603271     -15.3663716
7.13                 0.995596417     -15.3874857
7.132                0.995589557     -15.4086305
7.134                0.995582691      -15.429806
7.136                0.995575818     -15.4510122
7.138                0.995568938     -15.4722494
7.14                 0.995562051     -15.4935175
7.142                0.995555158     -15.5148167
7.144                0.995548258     -15.5361471
7.146                0.995541351     -15.5575087
7.148                0.995534436     -15.5789016
7.15                 0.995527515      -15.600326
7.152                0.995520586     -15.6217818
7.154                0.995513649     -15.6432693
7.156                0.995506706     -15.6647884
7.158                0.995499754     -15.6863394
7.16                 0.995492795     -15.7079222
7.162                0.995485828     -15.7295369
7.164                0.995478853     -15.7511837
7.166                 0.99547187     -15.7728627
7.168                0.995464878     -15.7945739
7.17                 0.995457879     -15.8163175
7.172                0.995450871     -15.8380934
7.174                0.995443855     -15.8599019
7.176                 0.99543683      -15.881743
7.178                0.995429796     -15.9036169
7.18                 0.995422754     -15.9255235
7.182                0.995415703      -15.947463
7.184                0.995408643     -15.9694355
7.186                0.995401574     -15.9914411
7.188                0.995394495     -16.0134799
7.19                 0.995387408      -16.035552
7.192                0.995380311     -16.0576574
7.194                0.995373204     -16.0797963
7.196                0.995366088     -16.1019688
7.198                0.995358962      -16.124175
7.2                  0.995351826     -16.1464149
7.202                0.995344681     -16.1686887
7.204                0.995337525     -16.1909965
7.206                0.995330359     -16.2133383
7.208                0.995323183     -16.2357143
7.21                 0.995315996     -16.2581246
7.212                0.995308799     -16.2805692
7.214                0.995301591     -16.3030483
7.216                0.995294373      -16.325562
7.218                0.995287144     -16.3481103
7.22                 0.995279904     -16.3706934
7.222                0.995272652     -16.3933114
7.224                 0.99526539     -16.4159644
7.226                0.995258116     -16.4386524
7.228                0.995250831     -16.4613756
7.23                 0.995243535     -16.4841341
7.232                0.995236227      -16.506928
7.234                0.995228907     -16.5297574
7.236                0.995221575     -16.5526224
7.238                0.995214231     -16.5755231
7.24                 0.995206875     -16.5984596
7.242                0.995199507      -16.621432
7.244                0.995192127     -16.6444404
7.246                0.995184734      -16.667485
7.248                0.995177329     -16.6905658
7.25                 0.995169911      -16.713683
7.252                 0.99516248     -16.7368366
7.254                0.995155036     -16.7600268
7.256                 0.99514758     -16.7832536
7.258                 0.99514011     -16.8065173
7.26                 0.995132627     -16.8298178
7.262                 0.99512513     -16.8531553
7.264                 0.99511762       -16.87653
7.266                0.995110096     -16.8999418
7.268                0.995102559      -16.923391
7.27                 0.995095007     -16.9468777
7.272                0.995087442     -16.9704019
7.274                0.995079862     -16.9939638
7.276                0.995072268     -17.0175634
7.278                 0.99506466      -17.041201
7.28                 0.995057038     -17.0648766
7.282                  0.9950494     -17.0885903
7.284                0.995041748     -17.1123423
7.286                0.995034081     -17.1361326
7.288                0.995026399     -17.1599614
7.29                 0.995018702     -17.1838288
7.292                 0.99501099     -17.2077349
7.294                0.995003262     -17.2316798
7.296                0.994995518     -17.2556637
7.298                0.994987759     -17.2796866
7.3                  0.994979984     -17.3037487
7.302                0.994972194     -17.3278501
7.304                0.994964387      -17.351991
7.306                0.994956564     -17.3761714
7.308                0.994948724     -17.4003914
7.31                 0.994940869     -17.4246512
7.312                0.994932996     -17.4489509
7.314                0.994925107     -17.4732907
7.316                0.994917201     -17.4976706
7.318                0.994909278     -17.5220908
7.32                 0.994901338     -17.5465513
7.322                0.994893381     -17.5710524
7.324                0.994885406     -17.5955942
7.326                0.994877413     -17.6201767
7.328                0.994869403     -17.6448001
7.33                 0.994861375     -17.6694645
7.332                 0.99485333       -17.69417
7.334                0.994845266     -17.7189169
7.336                0.994837183     -17.7437051
7.338                0.994829083     -17.7685349
7.34                 0.994820964     -17.7934063
7.342                0.994812826     -17.8183195
7.344                0.994804669     -17.8432746
7.346                0.994796494     -17.8682718
7.348                0.994788299     -17.8933112
7.35                 0.994780085     -17.9183928
7.352                0.994771852     -17.9435169
7.354                0.994763599     -17.9686836
7.356                0.994755327      -17.993893
7.358                0.994747034     -18.0191452
7.36                 0.994738722     -18.0444404
7.362                 0.99473039     -18.0697787
7.364                0.994722037     -18.0951602
7.366                0.994713664     -18.1205851
7.368                 0.99470527     -18.1460536
7.37                 0.994696855     -18.1715656
7.372                 0.99468842     -18.1971215
7.374                0.994679964     -18.2227213
7.376                0.994671486     -18.2483651
7.378                0.994662987     -18.2740531
7.38                 0.994654467     -18.2997855
7.382                0.994645925     -18.3255624
7.384                0.994637361     -18.3513839
7.386                0.994628775     -18.3772501
7.388                0.994620167     -18.4031612
7.39                 0.994611537     -18.4291174
7.392                0.994602884     -18.4551188
7.394                0.994594208     -18.4811655
7.396                 0.99458551     -18.5072577
7.398                0.994576789     -18.5333955
7.4                  0.994568045     -18.5595791
7.402                0.994559278     -18.5858085
7.404                0.994550487     -18.6120841
7.406                0.994541673     -18.6384058
7.408                0.994532835     -18.6647739
7.41                 0.994523973     -18.6911884
7.412                0.994515087     -18.7176497
7.414                0.994506176     -18.7441577
7.416                0.994497242     -18.7707127
7.418                0.994488282     -18.7973147
7.42                 0.994479298     -18.8239641
7.422                0.994470289     -18.8506608
7.424                0.994461255      -18.877405
7.426                0.994452196      -18.904197
7.428                0.994443111     -18.9310368
7.43                 0.994434001     -18.9579247
7.432                0.994424865     -18.9848607
7.434                0.994415703      -19.011845
7.436                0.994406515     -19.0388779
7.438                  0.9943973     -19.0659593
7.44                 0.994388059     -19.0930896
7.442                0.994378791     -19.1202688
7.444                0.994369497     -19.1474971
7.446                0.994360176     -19.1747747
7.448                0.994350827     -19.2021017
7.45                 0.994341451     -19.2294784
7.452                0.994332047     -19.2569047
7.454                0.994322616      -19.284381
7.456                0.994313156     -19.3119074
7.458                0.994303669      -19.339484
7.46                 0.994294153     -19.3671111
7.462                0.994284609     -19.3947887
7.464                0.994275036      -19.422517
7.466                0.994265434     -19.4502963
7.468                0.994255804     -19.4781266
7.47                 0.994246144     -19.5060081
7.472                0.994236454     -19.5339411
7.474                0.994226735     -19.5619257
7.476                0.994216986      -19.589962
7.478                0.994207207     -19.6180502
7.48                 0.994197398     -19.6461905
7.482                0.994187558     -19.6743831
7.484                0.994177688     -19.7026281
7.486                0.994167787     -19.7309258
7.488                0.994157855     -19.7592762
7.49                 0.994147892     -19.7876796
7.492                0.994137898     -19.8161361
7.494                0.994127871     -19.8446459
7.496                0.994117813     -19.8732093
7.498                0.994107723     -19.9018263
7.5                  0.994097601     -19.9304971
7.502                0.994087447      -19.959222
7.504                0.994077259     -19.9880011
7.506                0.994067039     -20.0168346
7.508                0.994056786     -20.0457226
7.51                   0.9940465     -20.0746655
7.512                 0.99403618     -20.1036632
7.514                0.994025826     -20.1327161
7.516                0.994015439     -20.1618243
7.518                0.994005017      -20.190988
7.52                 0.993994561     -20.2202073
7.522                0.993984071     -20.2494826
7.524                0.993973546     -20.2788139
7.526                0.993962986     -20.3082015
7.528                0.993952391     -20.3376455
7.53                  0.99394176     -20.3671461
7.532                0.993931093     -20.3967036
7.534                0.993920391      -20.426318
7.536                0.993909653     -20.4559897
7.538                0.993898878     -20.4857188
7.54                 0.993888067     -20.5155055
7.542                0.993877219       -20.54535
7.544                0.993866334     -20.5752525
7.546                0.993855412     -20.6052132
7.548                0.993844453     -20.6352323
7.55                 0.993833455       -20.66531
7.552                 0.99382242     -20.6954464
7.554                0.993811347     -20.7256419
7.556                0.993800235     -20.7558966
7.558                0.993789085     -20.7862106
7.56                 0.993777896     -20.8165843
7.562                0.993766667     -20.8470178
7.564                0.993755399     -20.8775113
7.566                0.993744092      -20.908065
7.568                0.993732745     -20.9386791
7.57                 0.993721358     -20.9693539
7.572                 0.99370993     -21.0000896
7.574                0.993698462     -21.0308863
7.576                0.993686953     -21.0617443
7.578                0.993675403     -21.0926638
7.58                 0.993663812     -21.1236449
7.582                0.993652179      -21.154688
7.584                0.993640504     -21.1857932
7.586                0.993628788     -21.2169608
7.588                0.993617028      -21.248191
7.59                 0.993605227     -21.2794839
7.592                0.993593382     -21.3108398
7.594                0.993581494      -21.342259
7.596                0.993569563     -21.3737416
7.598                0.993557588     -21.4052879
7.6                   0.99354557      -21.436898
7.602                0.993533507     -21.4685723
7.604                  0.9935214      -21.500311
7.606                0.993509247     -21.5321142
7.608                 0.99349705     -21.5639822
7.61                 0.993484808     -21.5959152
7.612                 0.99347252     -21.6279135
7.614                0.993460187     -21.6599773
7.616                0.993447807     -21.6921068
7.618                0.993435381     -21.7243022
7.62                 0.993422908     -21.7565639
7.622                0.993410388      -21.788892
7.624                0.993397821     -21.8212867
7.626                0.993385207     -21.8537483
7.628                0.993372545     -21.8862771
7.63                 0.993359834     -21.9188733
7.632                0.993347076      -21.951537
7.634                0.993334268     -21.9842687
7.636                0.993321412     -22.0170684
7.638                0.993308507     -22.0499365
7.64                 0.993295552     -22.0828732
7.642                0.993282547     -22.1158787
7.644                0.993269492     -22.1489533
7.646                0.993256386     -22.1820972
7.648                 0.99324323     -22.2153108
7.65                 0.993230023     -22.2485941
7.652                0.993216764     -22.2819476
7.654                0.993203454     -22.3153714
7.656                0.993190092     -22.3488658
7.658                0.993176677      -22.382431
7.66                  0.99316321     -22.4160674
7.662                 0.99314969     -22.4497752
7.664                0.993136117     -22.4835545
7.666                 0.99312249     -22.5174058
7.668                0.993108809     -22.5513292
7.67                 0.993095074     -22.5853251
7.672                0.993081285     -22.6193936
7.674                0.993067441      -22.653535
7.676                0.993053542     -22.6877497
7.678                0.993039587     -22.7220379
7.68                 0.993025576     -22.7563998
7.682                0.993011509     -22.7908358
7.684                0.992997386      -22.825346
7.686                0.992983206     -22.8599308
7.688                0.992968968     -22.8945905
7.69                 0.992954673     -22.9293253
7.692                 0.99294032     -22.9641354
7.694                0.992925909     -22.9990213
7.696                 0.99291144     -23.0339831
7.698                0.992896912     -23.0690212
7.7                  0.992882324     -23.1041358
7.702                0.992867677     -23.1393272
7.704                0.992852969     -23.1745957
7.706                0.992838202     -23.2099415
7.708                0.992823374     -23.2453651
7.71                 0.992808484     -23.2808666
7.712                0.992793534     -23.3164464
7.714                0.992778521     -23.3521047
7.716                0.992763446     -23.3878418
7.718                0.992748309     -23.4236581
7.72                 0.992733109     -23.4595538
7.722                0.992717846     -23.4955292
7.724                0.992702519     -23.5315847
7.726                0.992687128     -23.5677205
7.728                0.992671673      -23.603937
7.73                 0.992656153     -23.6402344
7.732                0.992640567      -23.676613
7.734                0.992624916     -23.7130732
7.736                  0.9926092     -23.7496152
7.738                0.992593417     -23.7862395
7.74                 0.992577567     -23.8229462
7.742                 0.99256165     -23.8597357
7.744                0.992545665     -23.8966083
7.746                0.992529613     -23.9335644
7.748                0.992513492     -23.9706042
7.75                 0.992497302     -24.0077281
7.752                0.992481043     -24.0449364
7.754                0.992464715     -24.0822294
7.756                0.992448317     -24.1196074
7.758                0.992431848     -24.1570708
7.76                 0.992415308     -24.1946199
7.762                0.992398697     -24.2322551
7.764                0.992382015     -24.2699765
7.766                 0.99236526     -24.3077847
7.768                0.992348433     -24.3456799
7.77                 0.992331533     -24.3836625
7.772                0.992314559     -24.4217328
7.774                0.992297512     -24.4598911
7.776                 0.99228039     -24.4981378
7.778                0.992263194     -24.5364732
7.78                 0.992245922     -24.5748976
7.782                0.992228575     -24.6134115
7.784                0.992211152     -24.6520152
7.786                0.992193652      -24.690709
7.788                0.992176075     -24.7294932
7.79                 0.992158421     -24.7683683
7.792                0.992140688     -24.8073346
7.794                0.992122878     -24.8463924
7.796                0.992104988      -24.885542
7.798                0.992087019      -24.924784
7.8                  0.992068971     -24.9641186
7.802                0.992050842     -25.0035461
7.804                0.992032632      -25.043067
7.806                0.992014341     -25.0826816
7.808                0.991995969     -25.1223903
7.81                 0.991977514     -25.1621935
7.812                0.991958976     -25.2020915
7.814                0.991940355     -25.2420848
7.816                 0.99192165     -25.2821736
7.818                0.991902862     -25.3223584
7.82                 0.991883988     -25.3626396
7.822                0.991865029     -25.4030175
7.824                0.991845985     -25.4434925
7.826                0.991826854      -25.484065
7.828                0.991807636     -25.5247355
7.83                 0.991788331     -25.5655042
7.832                0.991768938     -25.6063717
7.834                0.991749457     -25.6473382
7.836                0.991729887     -25.6884043
7.838                0.991710227     -25.7295702
7.84                 0.991690478     -25.7708364
7.842                0.991670638     -25.8122033
7.844                0.991650707     -25.8536713
7.846                0.991630684     -25.8952409
7.848                0.991610569     -25.9369123
7.85                 0.991590361     -25.9786861
7.852                 0.99157006     -26.0205627
7.854                0.991549665     -26.0625424
7.856                0.991529176     -26.1046257
7.858                0.991508591     -26.1468131
7.86                 0.991487911     -26.1891049
7.862                0.991467135     -26.2315015
7.864                0.991446262     -26.2740035
7.866                0.991425292     -26.3166112
7.868                0.991404224      -26.359325
7.87                 0.991383057     -26.4021455
7.872                0.991361791      -26.445073
7.874                0.991340426     -26.4881079
7.876                 0.99131896     -26.5312508
7.878                0.991297393     -26.5745021
7.88                 0.991275725     -26.6178622
7.882                0.991253954     -26.6613315
7.884                0.991232081     -26.7049106
7.886                0.991210104     -26.7485999
7.888                0.991188023     -26.7923998
7.89                 0.991165837     -26.8363107
7.892                0.991143546     -26.8803333
7.894                0.991121149     -26.9244679
7.896                0.991098645     -26.9687149
7.898                0.991076034     -27.0130749
7.9                  0.991053315     -27.0575484
7.902                0.991030488     -27.1021358
7.904                0.991007551     -27.1468375
7.906                0.990984504     -27.1916542
7.908                0.990961347     -27.2365862
7.91                 0.990938078      -27.281634
7.912                0.990914697     -27.3267982
7.914                0.990891204     -27.3720791
7.916                0.990867597     -27.4174775
7.918                0.990843876     -27.4629936
7.92                  0.99082004      -27.508628
7.922                0.990796089     -27.5543812
7.924                0.990772021     -27.6002538
7.926                0.990747837     -27.6462462
7.928                0.990723535     -27.6923589
7.93                 0.990699114     -27.7385925
7.932                0.990674575     -27.7849475
7.934                0.990649915     -27.8314244
7.936                0.990625135     -27.8780236
7.938                0.990600233     -27.9247458
7.94                  0.99057521     -27.9715915
7.942                0.990550063     -28.0185612
7.944                0.990524793     -28.0656554
7.946                0.990499399     -28.1128747
7.948                0.990473879     -28.1602196
7.95                 0.990448233     -28.2076906
7.952                0.990422461     -28.2552884
7.954                0.990396561     -28.3030134
7.956                0.990370533     -28.3508662
7.958                0.990344375     -28.3988473
7.96                 0.990318088     -28.4469574
7.962                 0.99029167      -28.495197
7.964                 0.99026512     -28.5435666
7.966                0.990238438     -28.5920668
7.968                0.990211623     -28.6406982
7.97                 0.990184673     -28.6894614
7.972                0.990157589     -28.7383569
7.974                0.990130369     -28.7873854
7.976                0.990103012     -28.8365473
7.978                0.990075517     -28.8858434
7.98                 0.990047885     -28.9352741
7.982                0.990020113     -28.9848401
7.984                0.989992201      -29.034542
7.986                0.989964148     -29.0843804
7.988                0.989935953     -29.1343558
7.99                 0.989907615      -29.184469
7.992                0.989879134     -29.2347205
7.994                0.989850508     -29.2851109
7.996                0.989821736     -29.3356408
7.998                0.989792818      -29.386311
8                    0.989763753     -29.4371219
8.002                0.989734539     -29.4880742
8.004                0.989705176     -29.5391686
8.006                0.989675663     -29.5904057
8.008                0.989645999     -29.6417862
8.01                 0.989616182     -29.6933106
8.012                0.989586213     -29.7449797
8.014                0.989556089     -29.7967941
8.016                 0.98952581     -29.8487544
8.018                0.989495375     -29.9008613
8.02                 0.989464783     -29.9531155
8.022                0.989434033     -30.0055176
8.024                0.989403124     -30.0580684
8.026                0.989372055     -30.1107684
8.028                0.989340824     -30.1636185
8.03                 0.989309432     -30.2166191
8.032                0.989277876     -30.2697711
8.034                0.989246156     -30.3230752
8.036                 0.98921427      -30.376532
8.038                0.989182218     -30.4301422
8.04                 0.989149999     -30.4839066
8.042                0.989117611     -30.5378258
8.044                0.989085053     -30.5919006
8.046                0.989052325     -30.6461316
8.048                0.989019424     -30.7005197
8.05                 0.988986351     -30.7550655
8.052                0.988953103     -30.8097698
8.054                 0.98891968     -30.8646332
8.056                0.988886081     -30.9196566
8.058                0.988852304     -30.9748407
8.06                 0.988818349     -31.0301862
8.062                0.988784214     -31.0856939
8.064                0.988749897     -31.1413645
8.066                0.988715398     -31.1971989
8.068                0.988680716     -31.2531977
8.07                 0.988645849     -31.3093618
8.072                0.988610797     -31.3656919
8.074                0.988575557     -31.4221888
8.076                0.988540129     -31.4788532
8.078                0.988504511     -31.5356861
8.08                 0.988468703     -31.5926881
8.082                0.988432702     -31.6498602
8.084                0.988396508      -31.707203
8.086                 0.98836012     -31.7647173
8.088                0.988323535     -31.8224041
8.09                 0.988286754     -31.8802642
8.092                0.988249774     -31.9382983
8.094                0.988212594     -31.9965072
8.096                0.988175213     -32.0548919
8.098                0.988137629     -32.1134532
8.1                  0.988099841     -32.1721919
8.102                0.988061849     -32.2311088
8.104                 0.98802365     -32.2902049
8.106                0.987985242     -32.3494809
8.108                0.987946626     -32.4089378
8.11                 0.987907799     -32.4685764
8.112                0.987868759     -32.5283976
8.114                0.987829506     -32.5884023
8.116                0.987790038     -32.6485914
8.118                0.987750354     -32.7089657
8.12                 0.987710451     -32.7695262
8.122                0.987670329     -32.8302738
8.124                0.987629987     -32.8912094
8.126                0.987589422     -32.9523339
8.128                0.987548633     -33.0136482
8.13                 0.987507619     -33.0751533
8.132                0.987466378     -33.1368501
8.134                0.987424908     -33.1987396
8.136                0.987383209     -33.2608226
8.138                0.987341278     -33.3231001
8.14                 0.987299114     -33.3855732
8.142                0.987256715     -33.4482427
8.144                 0.98721408     -33.5111097
8.146                0.987171207     -33.5741751
8.148                0.987128094     -33.6374399
8.15                  0.98708474     -33.7009051
8.152                0.987041144     -33.7645716
8.154                0.986997303     -33.8284406
8.156                0.986953216      -33.892513
8.158                0.986908881     -33.9567898
8.16                 0.986864296      -34.021272
8.162                 0.98681946     -34.0859608
8.164                0.986774371      -34.150857
8.166                0.986729028     -34.2159618
8.168                0.986683428     -34.2812762
8.17                  0.98663757     -34.3468012
8.172                0.986591451      -34.412538
8.174                0.986545071     -34.4784876
8.176                0.986498427     -34.5446511
8.178                0.986451518     -34.6110295
8.18                 0.986404341      -34.677624
8.182                0.986356895     -34.7444356
8.184                0.986309179     -34.8114655
8.186                0.986261189     -34.8787148
8.188                0.986212924     -34.9461845
8.19                 0.986164383     -35.0138759
8.192                0.986115563       -35.08179
8.194                0.986066462     -35.1499281
8.196                0.986017078     -35.2182912
8.198                 0.98596741     -35.2868805
8.2                  0.985917456     -35.3556971