! TOUCHSTONE file generated by CST DESIGN STUDIO
! Date and time: Mon Feb 10 16:42:52 2025
! Project name: C:\Work\MatlabApps\UnitCellType2OptimizationMatlab\CST\unitcell.cst
! Tree item: Tasks\Sweep1\SPara1\S-Parameters
! Header version: 2024
! Port assignment regex: !\s*Touchstone port\s*([0-9]+)\s*=\s*(CST MWS port|CST DES external port|CST DES block port)\s*(.+)\s* \(\"(.*)\"\)(\s*mode\s*([0-9]+))?.*
! Touchstone port assignment:
! Touchstone port 1 = CST DES external port 1 ("")
# GHz S MA R 50
7                    0.994702806     -13.0364822
7.002                0.994688423     -13.0537353
7.004                0.994674013     -13.0709889
7.006                0.994659575     -13.0882429
7.008                0.994645111     -13.1054974
7.01                  0.99463282     -13.1228052
7.012                0.994620506     -13.1401135
7.014                0.994608169     -13.1574223
7.016                0.994595809     -13.1747315
7.018                0.994585523     -13.1921069
7.02                 0.994575219     -13.2094828
7.022                0.994564895      -13.226859
7.024                0.994554554     -13.2442357
7.026                0.994546188      -13.261686
7.028                0.994537808     -13.2791367
7.03                 0.994529414     -13.2965877
7.032                0.994521006     -13.3140392
7.034                 0.99451456     -13.3315689
7.036                0.994508104      -13.349099
7.038                0.994501638     -13.3666295
7.04                 0.994495163     -13.3841604
7.042                0.994490682     -13.4017756
7.044                0.994486195     -13.4193912
7.046                0.994481702     -13.4370072
7.048                0.994477204     -13.4546236
7.05                 0.994474785      -13.472333
7.052                0.994472366     -13.4900427
7.054                0.994469945     -13.5077528
7.056                0.994467524     -13.5254632
7.058                0.994467256     -13.5432822
7.06                 0.994466992     -13.5611016
7.062                0.994466733     -13.5789212
7.064                0.994466479     -13.5967412
7.066                 0.99446837     -13.6146883
7.068                0.994470272     -13.6326357
7.07                 0.994472183     -13.6505833
7.072                0.994474104     -13.6685313
7.074                0.994478112     -13.6866236
7.076                0.994482134     -13.7047162
7.078                0.994486171      -13.722809
7.08                 0.994490223     -13.7409021
7.082                0.994496178      -13.759157
7.084                0.994502152      -13.777412
7.086                0.994508145     -13.7956673
7.088                0.994514157     -13.8139228
7.09                 0.994521833     -13.8323552
7.092                0.994529531     -13.8507877
7.094                0.994537253     -13.8692205
7.096                0.994544996     -13.8876534
7.098                0.994554152     -13.9062724
7.1                  0.994563334     -13.9248916
7.102                0.994572542     -13.9435109
7.104                0.994581776     -13.9621304
7.106                0.994592193     -13.9809382
7.108                0.994602639     -13.9997462
7.11                 0.994613115     -14.0185543
7.112                 0.99462362     -14.0373625
7.114                0.994635133     -14.0563641
7.116                0.994646678     -14.0753658
7.118                0.994658256     -14.0943676
7.12                 0.994669867     -14.1133695
7.122                0.994682375     -14.1325664
7.124                0.994694918     -14.1517633
7.126                0.994707497     -14.1709603
7.128                0.994720111     -14.1901573
7.13                 0.994733529     -14.2095508
7.132                0.994746986     -14.2289443
7.134                0.994760481     -14.2483378
7.136                0.994774014     -14.2677314
7.138                 0.99478824     -14.2873325
7.14                 0.994802508     -14.3069337
7.142                0.994816817     -14.3265348
7.144                0.994831167     -14.3461359
7.146                0.994846083     -14.3659523
7.148                0.994861044     -14.3857687
7.15                 0.994876049      -14.405585
7.152                0.994891097     -14.4254013
7.154                  0.9949065     -14.4454406
7.156                0.994921949     -14.4654799
7.158                0.994937444     -14.4855191
7.16                 0.994952985     -14.5055583
7.162                0.994968641     -14.5258258
7.164                0.994984345     -14.5460933
7.166                0.995000096     -14.5663607
7.168                0.995015894      -14.586628
7.17                  0.99503155     -14.6071287
7.172                0.995047253     -14.6276294
7.174                0.995063005     -14.6481299
7.176                0.995078806     -14.6686304
7.178                  0.9950942     -14.6893617
7.18                 0.995109644      -14.710093
7.182                0.995125135     -14.7308241
7.184                0.995140676     -14.7515551
7.186                0.995155606     -14.7725113
7.188                0.995170585     -14.7934674
7.19                 0.995185613     -14.8144234
7.192                0.995200689     -14.8353793
7.194                0.995214989     -14.8565579
7.196                0.995229337     -14.8777364
7.198                0.995243733     -14.8989147
7.2                  0.995258176      -14.920093
7.202                0.995271713     -14.9414891
7.204                0.995285296      -14.962885
7.206                0.995298926     -14.9842808
7.208                0.995312603     -15.0056766
7.21                  0.99532526     -15.0272865
7.212                0.995337962     -15.0488964
7.214                0.995350711     -15.0705061
7.216                0.995363505     -15.0921158
7.218                0.995375149     -15.1139406
7.22                 0.995386838     -15.1357653
7.222                0.995398572     -15.1575899
7.224                0.995410349     -15.1794145
7.226                0.995420861     -15.2014485
7.228                0.995431415     -15.2234824
7.23                 0.995442012     -15.2455164
7.232                 0.99545265     -15.2675502
7.234                0.995461858     -15.2897902
7.236                0.995471105     -15.3120302
7.238                0.995480392     -15.3342702
7.24                 0.995489718     -15.3565101
7.242                 0.99549746     -15.3789513
7.244                0.995505237     -15.4013925
7.246                0.995513052     -15.4238337
7.248                0.995520903     -15.4462749
7.25                 0.995527032     -15.4689099
7.252                0.995533195     -15.4915449
7.254                 0.99553939     -15.5141799
7.256                0.995545618      -15.536815
7.258                0.995550015     -15.5596368
7.26                 0.995554441     -15.5824586
7.262                0.995558895     -15.6052806
7.264                0.995563379     -15.6281026
7.266                0.995565993     -15.6510986
7.268                0.995568632     -15.6740947
7.27                 0.995571295     -15.6970909
7.272                0.995573983     -15.7200873
7.274                0.995574752     -15.7432477
7.276                0.995575542     -15.7664083
7.278                0.995576351      -15.789569
7.28                 0.995577181     -15.8127299
7.282                  0.9955761      -15.836053
7.284                0.995575035     -15.8593762
7.286                0.995573985     -15.8826997
7.288                 0.99557295     -15.9060233
7.29                  0.99556999     -15.9294983
7.292                0.995567039     -15.9529735
7.294                  0.9955641     -15.9764488
7.296                0.995561172     -15.9999244
7.298                0.995556285     -16.0235468
7.3                  0.995551404     -16.0471695
7.302                0.995546529     -16.0707923
7.304                 0.99554166     -16.0944154
7.306                0.995534809     -16.1181756
7.308                0.995527959     -16.1419359
7.31                 0.995521109     -16.1656966
7.312                 0.99551426     -16.1894575
7.314                0.995505425     -16.2133459
7.316                0.995496586     -16.2372347
7.318                0.995487742     -16.2611237
7.32                 0.995478894      -16.285013
7.322                0.995468065     -16.3090222
7.324                0.995457226     -16.3330316
7.326                0.995446378     -16.3570413
7.328                0.995435519     -16.3810513
7.33                 0.995422759     -16.4051671
7.332                0.995409984     -16.4292832
7.334                0.995397194     -16.4533996
7.336                 0.99538439     -16.4775163
7.338                0.995369785     -16.5017305
7.34                  0.99535516     -16.5259451
7.342                0.995340516       -16.55016
7.344                0.995325851     -16.5743752
7.346                0.995309554     -16.5986762
7.348                0.995293233     -16.6229775
7.35                 0.995276887     -16.6472792
7.352                0.995260517     -16.6715813
7.354                0.995242663     -16.6959742
7.356                 0.99522478     -16.7203674
7.358                0.995206869      -16.744761
7.36                 0.995188929      -16.769155
7.362                0.995169614     -16.7936305
7.364                0.995150267     -16.8181063
7.366                0.995130887     -16.8425824
7.368                0.995111474     -16.8670589
7.37                 0.995090797     -16.8916165
7.372                0.995070083     -16.9161743
7.374                0.995049333     -16.9407325
7.376                0.995028548      -16.965291
7.378                0.995006528     -16.9899315
7.38                 0.994984469     -17.0145723
7.382                0.994962371     -17.0392134
7.384                0.994940233     -17.0638548
7.386                0.994916954     -17.0885644
7.388                0.994893633     -17.1132743
7.39                  0.99487027     -17.1379846
7.392                0.994846863     -17.1626951
7.394                0.994822375     -17.1874754
7.396                0.994797841      -17.212256
7.398                0.994773261     -17.2370368
7.4                  0.994748635      -17.261818
7.402                0.994723076     -17.2866575
7.404                0.994697469     -17.3114974
7.406                0.994671814     -17.3363375
7.408                 0.99464611      -17.361178
7.41                 0.994619704     -17.3860668
7.412                0.994593248     -17.4109559
7.414                0.994566742     -17.4358452
7.416                0.994540185     -17.4607348
7.418                 0.99451318     -17.4856738
7.42                 0.994486124      -17.510613
7.422                0.994459016     -17.5355524
7.424                0.994431856     -17.5604922
7.426                0.994404557     -17.5854789
7.428                0.994377205     -17.6104658
7.43                 0.994349802      -17.635453
7.432                0.994322346     -17.6604404
7.434                0.994294969     -17.6854862
7.436                 0.99426754     -17.7105323
7.438                 0.99424006     -17.7355785
7.44                 0.994212528     -17.7606249
7.442                0.994185244      -17.785737
7.444                0.994157909     -17.8108492
7.446                0.994130523     -17.8359615
7.448                0.994103086     -17.8610741
7.45                 0.994076007     -17.8862588
7.452                0.994048877     -17.9114437
7.454                0.994021697     -17.9366288
7.456                0.993994466     -17.9618139
7.458                0.993967609     -17.9870813
7.46                 0.993940703     -18.0123487
7.462                0.993913747     -18.0376163
7.464                0.993886741      -18.062884
7.466                0.993860126     -18.0882359
7.468                0.993833461      -18.113588
7.47                 0.993806748     -18.1389401
7.472                0.993779986     -18.1642923
7.474                0.993753682     -18.1897286
7.476                 0.99372733     -18.2151649
7.478                 0.99370093     -18.2406012
7.48                 0.993674483     -18.2660376
7.482                0.993648639     -18.2915523
7.484                 0.99362275      -18.317067
7.486                0.993596814     -18.3425818
7.488                0.993570833     -18.3680966
7.49                 0.993545694      -18.393691
7.492                 0.99352051     -18.4192853
7.494                0.993495283     -18.4448797
7.496                0.993470013     -18.4704741
7.498                0.993445863     -18.4961529
7.5                  0.993421672     -18.5218316
7.502                 0.99339744     -18.5475104
7.504                0.993373168     -18.5731892
7.506                0.993350279     -18.5989693
7.508                0.993327353     -18.6247494
7.51                  0.99330439     -18.6505295
7.512                0.993281389     -18.6763095
7.514                0.993259972     -18.7022045
7.516                0.993238523     -18.7280995
7.518                 0.99321704     -18.7539944
7.52                 0.993195523     -18.7798893
7.522                 0.99317567     -18.8059227
7.524                0.993155788     -18.8319561
7.526                0.993135876     -18.8579893
7.528                0.993115936     -18.8840225
7.53                 0.993097579     -18.9102126
7.532                0.993079197     -18.9364026
7.534                0.993060789     -18.9625924
7.536                0.993042356     -18.9887822
7.538                0.993025384     -19.0151401
7.54                 0.993008389     -19.0414979
7.542                0.992991373     -19.0678555
7.544                0.992974334      -19.094213
7.546                0.992958604     -19.1207494
7.548                0.992942855     -19.1472855
7.55                 0.992927087     -19.1738215
7.552                  0.9929113     -19.2003574
7.554                0.992896723     -19.2270739
7.556                 0.99288213     -19.2537902
7.558                0.992867521     -19.2805063
7.56                 0.992852897     -19.3072222
7.562                0.992839544     -19.3341137
7.564                0.992826178     -19.3610049
7.566                0.992812801     -19.3878959
7.568                0.992799411     -19.4147866
7.57                 0.992787424     -19.4418568
7.572                0.992775429     -19.4689267
7.574                0.992763425     -19.4959964
7.576                0.992751413     -19.5230659
7.578                0.992741001     -19.5503282
7.58                 0.992730586     -19.5775903
7.582                0.992720166     -19.6048521
7.584                0.992709741     -19.6321136
7.586                0.992701132     -19.6595782
7.588                0.992692523     -19.6870425
7.59                 0.992683914     -19.7145065
7.592                0.992675306     -19.7419701
7.594                0.992668523     -19.7696699
7.596                0.992661746     -19.7973692
7.598                0.992654974     -19.8250683
7.6                  0.992648208     -19.8527669
7.602                0.992643203     -19.8807197
7.604                0.992638208     -19.9086722
7.606                0.992633224     -19.9366242
7.608                0.992628251     -19.9645759
7.61                 0.992624766     -19.9928061
7.612                0.992621296     -20.0210358
7.614                 0.99261784     -20.0492652
7.616                0.992614399     -20.0774941
7.618                0.992612112     -20.1060198
7.62                 0.992609843     -20.1345451
7.622                0.992607591     -20.1630699
7.624                0.992605356     -20.1915943
7.626                0.992603935     -20.2204137
7.628                0.992602534     -20.2492326
7.63                 0.992601152      -20.278051
7.632                0.992599791     -20.3068689
7.634                 0.99259901     -20.3359799
7.636                0.992598251     -20.3650904
7.638                0.992597514     -20.3942002
7.64                 0.992596799     -20.4233095
7.642                0.992596585     -20.4527065
7.644                0.992596396     -20.4821028
7.646                 0.99259623     -20.5114985
7.648                0.992596089     -20.5408936
7.65                 0.992596503     -20.5705705
7.652                0.992596944     -20.6002468
7.654                0.992597412     -20.6299225
7.656                0.992597905     -20.6595976
7.658                0.992599105     -20.6895649
7.66                 0.992600333     -20.7195315
7.662                 0.99260159     -20.7494975
7.664                0.992602876     -20.7794629
7.666                0.992604999     -20.8097351
7.668                0.992607153     -20.8400066
7.67                  0.99260934     -20.8702774
7.672                0.992611559     -20.9005475
7.674                0.992614558     -20.9311463
7.676                0.992617594     -20.9617444
7.678                0.992620664     -20.9923417
7.68                  0.99262377     -21.0229383
7.682                0.992627447     -21.0538823
7.684                0.992631162     -21.0848255
7.686                0.992634915     -21.1157678
7.688                0.992638706     -21.1467095
7.69                 0.992642706     -21.1780259
7.692                0.992646746     -21.2093416
7.694                0.992650824     -21.2406565
7.696                 0.99265494     -21.2719705
7.698                0.992658801     -21.3036583
7.7                  0.992662701     -21.3353452
7.702                0.992666638     -21.3670312
7.704                0.992670614     -21.3987164
7.706                0.992673875     -21.4307746
7.708                0.992677173     -21.4628319
7.71                 0.992680509     -21.4948883
7.712                0.992683882     -21.5269438
7.714                0.992686274     -21.5593564
7.716                0.992688702      -21.591768
7.718                0.992691166     -21.6241787
7.72                 0.992693666     -21.6565885
7.722                0.992695076     -21.6893401
7.724                 0.99269652     -21.7220908
7.726                0.992697999     -21.7548405
7.728                0.992699513     -21.7875892
7.73                 0.992700049     -21.8206713
7.732                0.992700617     -21.8537524
7.734                0.992701218     -21.8868325
7.736                0.992701851     -21.9199117
7.738                0.992701698     -21.9533211
7.74                 0.992701575     -21.9867296
7.742                0.992701484     -22.0201371
7.744                0.992701424     -22.0535436
7.746                0.992700691     -22.0872882
7.748                0.992699989     -22.1210317
7.75                 0.992699317     -22.1547742
7.752                0.992698675     -22.1885157
7.754                0.992697416     -22.2226152
7.756                0.992696188     -22.2567136
7.758                0.992694989     -22.2908109
7.76                 0.992693821     -22.3249071
7.762                0.992691826     -22.3593817
7.764                0.992689859     -22.3938551
7.766                0.992687921     -22.4283275
7.768                0.992686011     -22.4627987
7.77                 0.992682895     -22.4976584
7.772                0.992679803     -22.5325169
7.774                0.992676737     -22.5673743
7.776                0.992673696     -22.6022305
7.778                0.992668978     -22.6374765
7.78                  0.99266428     -22.6727212
7.782                0.992659603     -22.7079647
7.784                0.992654946      -22.743207
7.786                0.992648227     -22.7788281
7.788                0.992641524     -22.8144479
7.79                 0.992634836     -22.8500664
7.792                0.992628163     -22.8856836
7.794                0.992619187     -22.9216517
7.796                0.992610221     -22.9576185
7.798                0.992601266     -22.9935839
7.8                   0.99259232     -23.0295479
7.802                0.992581086     -23.0658461
7.804                0.992569856     -23.1021428
7.806                0.992558631     -23.1384383
7.808                 0.99254741     -23.1747324
7.81                 0.992534128     -23.2113371
7.812                0.992520844     -23.2479406
7.814                0.992507559     -23.2845426
7.816                0.992494274     -23.3211434
7.818                0.992479278     -23.3580509
7.82                 0.992464276      -23.394957
7.822                0.992449268     -23.4318617
7.824                0.992434255     -23.4687651
7.826                 0.99241785     -23.5059834
7.828                0.992401436     -23.5432003
7.83                 0.992385013     -23.5804157
7.832                 0.99236858     -23.6176297
7.834                0.992350876     -23.6551719
7.836                0.992333159     -23.6927126
7.838                0.992315431     -23.7302518
7.84                  0.99229769     -23.7677895
7.842                0.992278595     -23.8056779
7.844                0.992259485     -23.8435647
7.846                0.992240359       -23.88145
7.848                0.992221217     -23.9193337
7.85                  0.99220046     -23.9575814
7.852                0.992179683     -23.9958274
7.854                0.992158884     -24.0340718
7.856                0.992138064     -24.0723146
7.858                0.992115188     -24.1109167
7.86                 0.992092283     -24.1495171
7.862                0.992069352     -24.1881156
7.864                0.992046393     -24.2267124
7.866                0.992021131     -24.2656513
7.868                0.991995836     -24.3045883
7.87                 0.991970508     -24.3435234
7.872                0.991945146     -24.3824566
7.874                0.991917334     -24.4217143
7.876                0.991889483     -24.4609701
7.878                0.991861593     -24.5002239
7.88                 0.991833664     -24.5394757
7.882                0.991803476     -24.5790219
7.884                0.991773243     -24.6185661
7.886                0.991742965     -24.6581082
7.888                0.991712642     -24.6976482
7.89                 0.991680426     -24.7374612
7.892                0.991648159     -24.7772721
7.894                0.991615842     -24.8170808
7.896                0.991583473     -24.8568875
7.898                 0.99154975     -24.8969674
7.9                  0.991515972      -24.937045
7.902                0.991482139     -24.9771205
7.904                0.991448251     -25.0171939
7.906                0.991413487     -25.0575472
7.908                0.991378667     -25.0978983
7.91                 0.991343789     -25.1382471
7.912                0.991308854     -25.1785936
7.914                0.991273343     -25.2192477
7.916                0.991237774     -25.2598994
7.918                0.991202148     -25.3005487
7.92                 0.991166463     -25.3411956
7.922                0.991130208     -25.3821738
7.924                0.991093892     -25.4231495
7.926                0.991057518     -25.4641227
7.928                0.991021084     -25.5050934
7.93                 0.990983882     -25.5464138
7.932                0.990946617     -25.5877316
7.934                 0.99090929     -25.6290468
7.936                0.990871901     -25.6703593
7.938                0.990833445      -25.712028
7.94                 0.990794923     -25.7536938
7.942                0.990756336     -25.7953568
7.944                0.990717683     -25.8370171
7.946                0.990677677     -25.8790176
7.948                0.990637604     -25.9210151
7.95                 0.990597461     -25.9630095
7.952                 0.99055725     -26.0050009
7.954                0.990515677     -26.0473204
7.956                0.990474033     -26.0896366
7.958                0.990432319     -26.1319497
7.96                 0.990390534     -26.1742595
7.962                 0.99034764      -26.216874
7.964                0.990304673     -26.2594852
7.966                0.990261633     -26.3020931
7.968                0.990218521     -26.3446976
7.97                 0.990174787     -26.3875924
7.972                0.990130978     -26.4304839
7.974                0.990087094     -26.4733719
7.976                0.990043135     -26.5162565
7.978                 0.98999918     -26.5594339
7.98                  0.98995515     -26.6026079
7.982                0.989911044     -26.6457783
7.984                0.989866862     -26.6889452
7.986                0.989823245     -26.7324304
7.988                0.989779555     -26.7759119
7.99                  0.98973579     -26.8193898
7.992                0.989691952      -26.862864
7.994                0.989648985     -26.9066904
7.996                0.989605948      -26.950513
7.998                0.989562841     -26.9943318
8                    0.989519663     -27.0381468
8.002                0.989477432     -27.0823502
8.004                0.989435134     -27.1265497
8.006                0.989392768     -27.1707452
8.008                0.989350335     -27.2149369
8.01                 0.989308536     -27.2595505
8.012                0.989266671     -27.3041602
8.014                0.989224741     -27.3487657
8.016                0.989182745     -27.3933672
8.018                0.989141081     -27.4383963
8.02                 0.989099352      -27.483421
8.022                0.989057559     -27.5284414
8.024                0.989015701     -27.5734574
8.026                0.988973837     -27.6189083
8.028                0.988931909     -27.6643545
8.03                 0.988889919     -27.7097961
8.032                0.988847865     -27.7552332
8.034                0.988805777     -27.8010841
8.036                0.988763628     -27.8469302
8.038                0.988721418     -27.8927713
8.04                 0.988679148     -27.9386076
8.042                 0.98863702     -27.9848462
8.044                0.988594833     -28.0310796
8.046                0.988552588     -28.0773081
8.048                0.988510283     -28.1235315
8.05                 0.988468653      -28.170163
8.052                0.988426966     -28.2167894
8.054                0.988385221     -28.2634106
8.056                 0.98834342     -28.3100267
8.058                0.988302849     -28.3570509
8.06                 0.988262224     -28.4040697
8.062                0.988221544     -28.4510833
8.064                 0.98818081     -28.4980916
8.066                0.988141814     -28.5455538
8.068                0.988102769     -28.5930107
8.07                 0.988063673     -28.6404622
8.072                0.988024528     -28.6879085
8.074                0.987987384     -28.7358438
8.076                0.987950196     -28.7837737
8.078                0.987912964     -28.8316981
8.08                 0.987875687      -28.879617
8.082                0.987840261     -28.9280767
8.084                0.987804796     -28.9765307
8.086                0.987769292     -29.0249789
8.088                0.987733749     -29.0734216
8.09                 0.987699638     -29.1224489
8.092                0.987665493     -29.1714703
8.094                0.987631313     -29.2204858
8.096                0.987597099     -29.2694953
8.098                0.987563822     -29.3191013
8.1                  0.987530516     -29.3687008
8.102                0.987497179      -29.418294
8.104                0.987463811     -29.4678808
8.106                0.987430879      -29.518068
8.108                 0.98739792     -29.5682485
8.11                 0.987364934     -29.6184222
8.112                0.987331923     -29.6685891
8.114                0.987299167      -29.719351
8.116                0.987266388     -29.7701058
8.118                0.987233586     -29.8208535
8.12                 0.987200761      -29.871594
8.122                0.987168362     -29.9229117
8.124                0.987135942     -29.9742217
8.126                0.987103501     -30.0255241
8.128                0.987071038     -30.0768189
8.13                 0.987039374     -30.1287036
8.132                0.987007691     -30.1805801
8.134                0.986975991     -30.2324482
8.136                0.986944273     -30.2843082
8.138                0.986913807      -30.336759
8.14                  0.98688333     -30.3892007
8.142                0.986852842     -30.4416333
8.144                0.986822343     -30.4940569
8.146                0.986793592     -30.5471215
8.148                0.986764839     -30.6001766
8.15                 0.986736085     -30.6532223
8.152                0.986707329     -30.7062584
8.154                0.986680501     -30.7599911
8.156                0.986653681     -30.8137148
8.158                0.986626866     -30.8674293
8.16                 0.986600057     -30.9211346
8.162                0.986574966     -30.9755815
8.164                0.986549881       -31.03002
8.166                0.986524802       -31.08445
8.168                0.986499729     -31.1388717
8.17                 0.986475818     -31.1940962
8.172                0.986451907      -31.249313
8.174                0.986427997      -31.304522
8.176                0.986404086     -31.3597231
8.178                0.986380473     -31.4157412
8.18                 0.986356854     -31.4717512
8.182                0.986333227     -31.5277533
8.184                0.986309593     -31.5837473
8.186                 0.98628555     -31.6405605
8.188                0.986261498      -31.697365
8.19                 0.986237437     -31.7541608
8.192                0.986213366     -31.8109478
8.194                0.986188441      -31.868551
8.196                 0.98616351     -31.9261448
8.198                0.986138575     -31.9837289
8.2                  0.986113634     -32.0413034