! TOUCHSTONE file generated by CST DESIGN STUDIO
! Date and time: Mon Feb 10 16:51:00 2025
! Project name: C:\Work\MatlabApps\UnitCellType2OptimizationMatlab\CST\unitcell.cst
! Tree item: Tasks\Sweep1\SPara1\S-Parameters
! Header version: 2024
! Port assignment regex: !\s*Touchstone port\s*([0-9]+)\s*=\s*(CST MWS port|CST DES external port|CST DES block port)\s*(.+)\s* \(\"(.*)\"\)(\s*mode\s*([0-9]+))?.*
! Touchstone port assignment:
! Touchstone port 1 = CST DES external port 1 ("")
# GHz S MA R 50
7                     0.98194592     -4.57396092
7.002                0.981732104     -4.61208411
7.004                0.981521143     -4.64995022
7.006                0.981312974     -4.68756332
7.008                0.981107535     -4.72492671
7.01                 0.980924391     -4.74857494
7.012                 0.98074604      -4.7721275
7.014                0.980572424     -4.79558342
7.016                0.980403505     -4.81894102
7.018                0.980417691     -4.83455553
7.02                 0.980434562     -4.85015531
7.022                0.980454114     -4.86574005
7.024                0.980476346     -4.88130946
7.026                0.980722971     -4.90030482
7.028                0.980967986     -4.91935102
7.03                  0.98121137     -4.93844727
7.032                0.981453122     -4.95759308
7.034                 0.98179518     -4.98921484
7.036                 0.98213249     -5.02086188
7.038                0.982465077     -5.05253154
7.04                  0.98279297     -5.08422182
7.042                0.983015472     -5.12773742
7.044                0.983233232     -5.17108904
7.046                0.983446326     -5.21427672
7.048                0.983654814     -5.25730074
7.05                 0.983649058      -5.3024507
7.052                0.983641185     -5.34731251
7.054                0.983631253     -5.39189052
7.056                0.983619316     -5.43618904
7.058                0.983453531     -5.47261006
7.06                 0.983289034     -5.50881438
7.062                0.983125816     -5.54480654
7.064                0.982963853     -5.58059012
7.066                0.982799969     -5.60503608
7.068                0.982639735     -5.62938533
7.07                 0.982483102     -5.65363843
7.072                0.982330025     -5.67779526
7.074                0.982313811     -5.69469659
7.076                0.982300508     -5.71157546
7.078                0.982290109     -5.72843154
7.08                 0.982282614     -5.74526449
7.082                 0.98246054      -5.7636895
7.084                0.982637953     -5.78214605
7.086                 0.98281485     -5.80063408
7.088                0.982991241     -5.81915437
7.09                 0.983268689      -5.8472391
7.092                0.983542693     -5.87534889
7.094                0.983813268     -5.90348241
7.096                 0.98408043     -5.93163837
7.098                0.984282486     -5.97008252
7.1                  0.984480777      -6.0084284
7.102                0.984675356     -6.04667463
7.104                0.984866271     -6.08482087
7.106                  0.9848847     -6.12600507
7.108                0.984900989     -6.16698393
7.11                 0.984915195     -6.20775978
7.112                0.984927363       -6.248335
7.114                0.984799208     -6.28325132
7.116                0.984671313     -6.31799134
7.118                0.984543673     -6.35255804
7.12                 0.984416286     -6.38695377
7.122                0.984270637     -6.41192655
7.124                0.984127568     -6.43680701
7.126                0.983987043     -6.46159553
7.128                0.983849039     -6.48629183
7.13                 0.983813543     -6.50426121
7.132                0.983780914     -6.52220198
7.134                 0.98375114     -6.54011372
7.136                0.983724212     -6.55799602
7.138                0.983851332     -6.57622577
7.14                 0.983978801     -6.59447508
7.142                0.984106605     -6.61274397
7.144                0.984234745     -6.63103252
7.146                0.984460741     -6.65667269
7.148                0.984684292     -6.68233635
7.15                 0.984905403     -6.70802257
7.152                0.985124081     -6.73373086
7.154                0.985306441     -6.76836521
7.156                0.985485785     -6.80293951
7.158                0.985662143      -6.8374533
7.16                 0.985835535     -6.87190646
7.162                0.985870055     -6.90992821
7.164                0.985902602     -6.94780404
7.166                 0.98593321     -6.98553525
7.168                0.985961917     -7.02312315
7.17                 0.985863288     -7.05675358
7.172                0.985764242     -7.09024315
7.174                0.985664802     -7.12359449
7.176                0.985564979      -7.1568098
7.178                0.985435884     -7.18215477
7.18                 0.985308418     -7.20741411
7.182                0.985182557     -7.23258903
7.184                 0.98505828     -7.25768026
7.186                0.985010706     -7.27656433
7.188                0.984965754     -7.29541486
7.19                 0.984923409     -7.31423155
7.192                0.984883667     -7.33301407
7.194                0.984972739     -7.35129296
7.196                0.985062778     -7.36958272
7.198                0.985153785     -7.38788342
7.2                  0.985245768     -7.40619565
7.202                0.985430421     -7.43015783
7.204                0.985613442     -7.45414142
7.206                0.985794832     -7.47814604
7.208                0.985974596     -7.50217135
7.21                 0.986138629     -7.53394125
7.212                0.986300213     -7.56567587
7.214                 0.98645937     -7.59737413
7.216                 0.98661612     -7.62903567
7.218                0.986661221       -7.664553
7.22                 0.986704566     -7.69996655
7.222                0.986746185     -7.73527683
7.224                0.986786103     -7.77048447
7.226                0.986710706     -7.80304018
7.228                0.986634529     -7.83548643
7.23                  0.98655759     -7.86782478
7.232                  0.9864799     -7.90005635
7.234                0.986365532     -7.92569493
7.236                0.986251989     -7.95125819
7.238                0.986139258       -7.976747
7.24                 0.986027334     -8.00216161
7.242                0.985972487     -8.02185567
7.244                 0.98591987     -8.04151302
7.246                0.985869473     -8.06113345
7.248                0.985821282     -8.08071678
7.25                 0.985881635      -8.0992174
7.252                0.985943401     -8.11772168
7.254                0.986006571     -8.13622969
7.256                0.986071144     -8.15474147
7.258                0.986222365     -8.17759246
7.26                 0.986372655     -8.20046323
7.262                0.986522011     -8.22335356
7.264                0.986670436     -8.24626352
7.266                0.986817682     -8.27590381
7.268                 0.98696294      -8.3055234
7.27                  0.98710622       -8.335122
7.272                0.987247529     -8.36469968
7.274                0.987299232     -8.39825189
7.276                0.987349413     -8.43172931
7.278                0.987398088     -8.46513225
7.28                 0.987445277     -8.49846103
7.282                 0.98738807     -8.53015385
7.284                0.987329905     -8.56176267
7.286                0.987270809     -8.59328867
7.288                0.987210799     -8.62473285
7.29                 0.987109129     -8.65062923
7.292                0.987007632     -8.67646155
7.294                0.986906307     -8.70223098
7.296                0.986805151     -8.72793839
7.298                0.986745997     -8.74836936
7.3                  0.986688592     -8.76876234
7.302                0.986632924     -8.78911731
7.304                0.986578986     -8.80943416
7.306                0.986617515     -8.82826336
7.308                0.986657708     -8.84708988
7.31                 0.986699563      -8.8659137
7.312                0.986743087      -8.8847351
7.314                 0.98686723     -8.90688092
7.316                0.986991056     -8.92904466
7.318                0.987114566     -8.95122633
7.32                 0.987237759     -8.97342591
7.322                0.987370197     -9.00149963
7.324                0.987501045     -9.02956342
7.326                0.987630307     -9.05761658
7.328                0.987757991     -9.08565893
7.33                   0.9878139     -9.11770469
7.332                 0.98786849     -9.14969575
7.334                0.987921777     -9.18163211
7.336                0.987973772     -9.21351392
7.338                0.987931092     -9.24455731
7.34                 0.987887439     -9.27553708
7.342                0.987842827     -9.30645385
7.344                0.987797266     -9.33730792
7.346                0.987706459     -9.36348954
7.348                0.987615332     -9.38961972
7.35                 0.987523889     -9.41569923
7.352                0.987432135     -9.44172884
7.354                0.987370505     -9.46287082
7.356                0.987310092     -9.48397513
7.358                0.987250883     -9.50504247
7.36                  0.98719287     -9.52607293
7.362                0.987214367      -9.5453291
7.364                0.987237626     -9.56457663
7.366                0.987262639     -9.58381556
7.368                0.987289405     -9.60304582
7.37                 0.987391242     -9.62480486
7.372                0.987493309     -9.64657967
7.374                0.987595602     -9.66837027
7.376                0.987698123     -9.69017691
7.378                0.987817269     -9.71713092
7.38                 0.987935194     -9.74408189
7.382                0.988051903     -9.77102971
7.384                0.988167394     -9.79797463
7.386                0.988225614     -9.82888818
7.388                0.988282694     -9.85976055
7.39                 0.988338645     -9.89059182
7.392                0.988393474     -9.92138209
7.394                0.988362217     -9.95197542
7.396                0.988330042     -9.98252023
7.398                0.988296967     -10.0130169
7.4                  0.988263005     -10.0434657
7.402                0.988181209     -10.0699757
7.404                0.988098744     -10.0964463
7.406                0.988015622     -10.1228781
7.408                0.987931848     -10.1492718
7.41                 0.987868674     -10.1711109
7.412                 0.98780616      -10.192916
7.414                0.987744303     -10.2146872
7.416                0.987683099     -10.2364247
7.418                0.987691051      -10.256169
7.42                 0.987700699     -10.2758997
7.422                 0.98771204     -10.2956166
7.424                0.987725081       -10.31532
7.426                0.987808377     -10.3369139
7.428                0.987892368     -10.3585206
7.43                 0.987977055     -10.3801402
7.432                0.988062436     -10.4017727
7.434                0.988169938     -10.4279453
7.436                0.988276595     -10.4541209
7.438                0.988382407      -10.480299
7.44                 0.988487376     -10.5064797
7.442                0.988547001     -10.5365701
7.444                 0.98860564     -10.5666291
7.446                0.988663301     -10.5966566
7.448                0.988719986     -10.6266525
7.45                 0.988698118     -10.6569776
7.452                0.988675454     -10.6872647
7.454                0.988652002     -10.7175141
7.456                0.988627767     -10.7477256
7.458                0.988553699     -10.7746255
7.46                 0.988478753     -10.8014973
7.462                 0.98840294     -10.8283413
7.464                0.988326269     -10.8551581
7.466                0.988262198     -10.8777136
7.468                0.988198253     -10.9002396
7.47                 0.988134429     -10.9227368
7.472                0.988070726     -10.9452055
7.474                0.988067861     -10.9655068
7.476                0.988066498     -10.9857901
7.478                0.988066629     -11.0060556
7.48                 0.988068253     -11.0263031
7.482                0.988136217      -11.047926
7.484                 0.98820526     -11.0695579
7.486                 0.98827538     -11.0911988
7.488                0.988346579     -11.1128489
7.49                 0.988444043     -11.1385314
7.492                0.988541051     -11.1642208
7.494                0.988637606     -11.1899171
7.496                0.988733704     -11.2156207
7.498                 0.98879424     -11.2451691
7.5                  0.988853937      -11.274693
7.502                0.988912799     -11.3041925
7.504                 0.98897083     -11.3336677
7.506                0.988956864     -11.3639201
7.508                0.988942234     -11.3941412
7.51                 0.988926951      -11.424331
7.512                0.988911021     -11.4544899
7.514                0.988843301     -11.4818891
7.516                0.988774609     -11.5092696
7.518                0.988704956     -11.5366317
7.52                 0.988634353     -11.5639757
7.522                0.988569292      -11.587304
7.524                0.988503854     -11.6106099
7.526                0.988438042     -11.6338939
7.528                0.988371859     -11.6571559
7.53                 0.988359587     -11.6780876
7.532                0.988348489     -11.6989988
7.534                0.988338561     -11.7198894
7.536                0.988329808     -11.7407595
7.538                 0.98838435     -11.7625601
7.54                 0.988440249     -11.7843649
7.542                0.988497506      -11.806174
7.544                0.988556121     -11.8279874
7.546                0.988644447     -11.8533992
7.548                0.988732733     -11.8788211
7.55                 0.988820979     -11.9042532
7.552                0.988909182     -11.9296953
7.554                0.988970145     -11.9589201
7.556                0.989030422     -11.9881264
7.558                0.989090018      -12.017314
7.56                 0.989148931     -12.0464831
7.562                0.989141682     -12.0768156
7.564                0.989133921     -12.1071202
7.566                 0.98912565      -12.137397
7.568                0.989116867     -12.1676459
7.57                 0.989054574     -12.1956286
7.572                0.988991322     -12.2235999
7.574                 0.98892712     -12.2515599
7.576                0.988861976     -12.2795087
7.578                0.988795909     -12.3036603
7.58                 0.988729021      -12.327797
7.582                0.988661318     -12.3519195
7.584                0.988592805     -12.3760283
7.586                0.988572417     -12.3976529
7.588                0.988552769     -12.4192557
7.59                 0.988533857     -12.4408369
7.592                0.988515678     -12.4623965
7.594                0.988558666     -12.4844975
7.596                0.988603175     -12.5065972
7.598                0.988649203     -12.5286957
7.6                  0.988696753      -12.550793
7.602                0.988777143     -12.5761194
7.604                0.988857927     -12.6014576
7.606                0.988939104     -12.6268075
7.608                0.989020672     -12.6521697
7.61                  0.98908223     -12.6812609
7.612                0.989143291     -12.7103387
7.614                0.989203856     -12.7394029
7.616                0.989263925     -12.7684538
7.618                0.989262994     -12.7990276
7.62                 0.989261692     -12.8295745
7.622                0.989260025     -12.8600947
7.624                0.989257997     -12.8905881
7.626                0.989200626     -12.9192834
7.628                0.989142395     -12.9479718
7.63                 0.989083312     -12.9766533
7.632                0.989023384     -13.0053281
7.634                0.988956219     -13.0304013
7.636                0.988887861     -13.0554689
7.638                0.988818318     -13.0805312
7.64                   0.9887476      -13.105588
7.642                0.988719784     -13.1279995
7.644                0.988692169     -13.1503902
7.646                0.988664755     -13.1727603
7.648                0.988637549     -13.1951099
7.65                 0.988670113     -13.2176384
7.652                 0.98870422     -13.2401597
7.654                 0.98873987     -13.2626736
7.656                0.988777064     -13.2851802
7.658                0.988850235      -13.310585
7.66                 0.988924248      -13.336002
7.662                0.988999103     -13.3614311
7.664                0.989074798     -13.3868723
7.666                0.989136925     -13.4160093
7.668                0.989198796     -13.4451378
7.67                 0.989260411     -13.4742578
7.672                0.989321767     -13.5033693
7.674                0.989326776     -13.5343391
7.676                0.989331574     -13.5652812
7.678                0.989336161     -13.5961955
7.68                 0.989340533     -13.6270821
7.682                0.989287564     -13.6566213
7.684                0.989233917     -13.6861551
7.686                0.989179597     -13.7156834
7.688                0.989124608     -13.7452064
7.69                 0.989055967     -13.7713148
7.692                 0.98898584     -13.7974266
7.694                0.988914237     -13.8235419
7.696                0.988841166      -13.849661
7.698                0.988805991     -13.8729658
7.7                  0.988770385     -13.8962529
7.702                0.988734346     -13.9195226
7.704                0.988697876      -13.942775
7.706                0.988720438     -13.9658406
7.708                0.988744405     -13.9888925
7.71                 0.988769779     -14.0119306
7.712                0.988796564     -14.0349551
7.714                0.988862752     -14.0605648
7.716                0.988930222     -14.0861852
7.718                0.988998976     -14.1118162
7.72                 0.989069013     -14.1374582
7.722                0.989131637     -14.1667611
7.724                0.989194323     -14.1960601
7.726                0.989257073     -14.2253554
7.728                0.989319886      -14.254647
7.73                 0.989330806     -14.2861298
7.732                0.989341687     -14.3175829
7.734                0.989352531     -14.3490061
7.736                0.989363338     -14.3803995
7.738                0.989314866     -14.4108994
7.74                 0.989265975     -14.4413916
7.742                0.989216671     -14.4718762
7.744                0.989166953     -14.5023531
7.746                0.989096987     -14.5296156
7.748                0.989025334     -14.5568906
7.75                 0.988952002     -14.5841779
7.752                0.988877004     -14.6114772
7.754                0.988834947     -14.6357871
7.756                0.988791723     -14.6600852
7.758                0.988747338     -14.6843715
7.76                 0.988701795     -14.7086461
7.762                0.988715104     -14.7323735
7.764                0.988729485     -14.7560809
7.766                0.988744934     -14.7797686
7.768                0.988761449     -14.8034366
7.77                 0.988821115     -14.8293927
7.772                0.988882486     -14.8553558
7.774                0.988945564     -14.8813259
7.776                 0.98901035     -14.9073028
7.778                0.989073571      -14.936917
7.78                  0.98913729      -14.966532
7.782                0.989201506     -14.9961481
7.784                0.989266217     -15.0257654
7.786                0.989283226     -15.0579081
7.788                0.989300425     -15.0900174
7.79                 0.989317814     -15.1220935
7.792                0.989335386     -15.1541364
7.794                0.989291488     -15.1857565
7.796                0.989247539     -15.2173621
7.798                0.989203536     -15.2489531
7.8                  0.989159481     -15.2805297
7.802                0.989088016     -15.3091133
7.804                0.989014765      -15.337717
7.806                 0.98893974     -15.3663408
7.808                0.988862949     -15.3949845
7.81                 0.988813751     -15.4204577
7.812                0.988762514     -15.4459279
7.814                0.988709246     -15.4713954
7.816                0.988653952     -15.4968601
7.818                0.988657786     -15.5213853
7.82                 0.988662069     -15.5458846
7.822                0.988666801      -15.570358
7.824                0.988671986     -15.5948059
7.826                0.988724581     -15.6212305
7.828                 0.98877926     -15.6476557
7.83                 0.988836025     -15.6740813
7.832                0.988894879     -15.7005076
7.834                0.988958069     -15.7305358
7.836                0.989022359     -15.7605699
7.838                 0.98908775     -15.7906097
7.84                 0.989154244     -15.8206555
7.842                0.989177168     -15.8535586
7.844                0.989200612      -15.886424
7.846                0.989224576     -15.9192516
7.848                0.989249057     -15.9520413
7.85                  0.98920974     -15.9849123
7.852                0.989170901     -16.0177547
7.854                0.989132539     -16.0505687
7.856                0.989094651     -16.0833541
7.858                0.989021521      -16.113402
7.86                 0.988946654     -16.1434763
7.862                0.988870056     -16.1735767
7.864                0.988791736     -16.2037028
7.866                0.988735459     -16.2304648
7.868                0.988676024     -16.2572381
7.87                 0.988613441     -16.2840222
7.872                0.988547721     -16.3108164
7.874                0.988542147     -16.3362514
7.876                0.988535961     -16.3616542
7.878                 0.98852916     -16.3870253
7.88                 0.988521747     -16.4123649
7.882                0.988567177     -16.4393396
7.884                0.988615003     -16.4663042
7.886                0.988665227     -16.4932585
7.888                0.988717852     -16.5202023
7.89                 0.988781001     -16.5507177
7.892                0.988846173     -16.5812444
7.894                0.988913372      -16.611782
7.896                0.988982599     -16.6423305
7.898                0.989012265     -16.6760837
7.9                  0.989043018     -16.7097924
7.902                0.989074852     -16.7434564
7.904                0.989107755     -16.7770758
7.906                0.989074079      -16.811355
7.908                0.989041782     -16.8455775
7.91                 0.989010856      -16.879743
7.912                0.988981295     -16.9138511
7.914                0.988907376     -16.9455628
7.916                 0.98883203     -16.9773022
7.918                0.988755264     -17.0090693
7.92                 0.988677082      -17.040864
7.922                0.988614721      -17.069119
7.924                0.988547518      -17.097409
7.926                0.988475486     -17.1257323
7.928                0.988398638     -17.1540871
7.93                 0.988384552     -17.1806077
7.932                0.988367819       -17.20709
7.934                 0.98834845     -17.2335338
7.936                0.988326457     -17.2599391
7.938                0.988364304     -17.2876062
7.94                 0.988404753     -17.3152417
7.942                0.988447809     -17.3428459
7.944                 0.98849348     -17.3704196
7.946                0.988555504     -17.4015079
7.948                0.988621367     -17.4326147
7.95                  0.98869108     -17.4637385
7.952                0.988764651     -17.4948781
7.954                0.988801373     -17.5296131
7.956                0.988840373      -17.564291
7.958                0.988881639      -17.598911
7.96                 0.988925156     -17.6334726
7.962                0.988896859     -17.6694248
7.964                0.988871962     -17.7052426
7.966                0.988850436     -17.7409235
7.968                0.988832246     -17.7764651
7.97                 0.988756328     -17.8101158
7.972                0.988680258      -17.843774
7.974                0.988604037     -17.8774397
7.976                0.988527666     -17.9111127
7.978                0.988460381     -17.9410094
7.98                 0.988384682     -17.9709981
7.982                0.988300578     -18.0010717
7.984                0.988208077     -18.0312237
7.986                0.988187806     -18.0588622
7.988                0.988159645     -18.0864534
7.99                 0.988123624     -18.1139934
7.992                0.988079779     -18.1414778
7.994                0.988109042     -18.1697112
7.996                0.988141677     -18.1978404
7.998                0.988177709     -18.2258713
8                    0.988217166     -18.2538099
8.002                 0.98827145     -18.2851571
8.004                 0.98833959     -18.3165441
8.006                0.988421631     -18.3479548
8.008                0.988517613      -18.379373
8.01                 0.988567582     -18.4151024
8.012                0.988626234     -18.4506537
8.014                0.988693332     -18.4860192
8.016                 0.98876863     -18.5211933
8.018                0.988754273      -18.561599
8.02                 0.988756251     -18.6001799
8.022                 0.98876993     -18.6369318
8.024                0.988790884     -18.6718795
8.026                0.988662158       -18.71291
8.028                0.988587992     -18.7513683
8.03                 0.988559732     -18.7868174
8.032                  0.9885679     -18.8188951
8.034                 0.98851069     -18.8491584
8.036                0.988437147     -18.8816821
8.038                0.988350367     -18.9165522
8.04                 0.988253554      -18.953843
8.042                0.988293226     -18.9810237
8.044                0.988275606      -19.011061
8.046                 0.98819513     -19.0436306
8.048                 0.98804685     -19.0783851
8.05                 0.988147649     -19.1076476
8.052                0.988183252     -19.1383427
8.054                0.988150016     -19.1699872
8.056                0.988045396      -19.202081
8.058                0.988148417     -19.2343969
8.06                 0.988207153     -19.2675035
8.062                0.988219684     -19.3011275
8.064                0.988184549     -19.3349886
8.066                0.988247034     -19.3708096
8.068                0.988285778     -19.4070577
8.07                 0.988300073     -19.4436309
8.072                0.988289342     -19.4804253
8.074                0.988289639     -19.5180352
8.076                0.988275788     -19.5559047
8.078                0.988247618     -19.5940003
8.08                 0.988204978     -19.6322881
8.082                0.988143927     -19.6690266
8.084                0.988076183     -19.7058063
8.086                0.988001749     -19.7426252
8.088                0.987920629     -19.7794811
8.09                 0.987828369     -19.8133867
8.092                0.987741829     -19.8472016
8.094                0.987660982     -19.8809215
8.096                0.987585795     -19.9145414
8.098                0.987520589     -19.9458536
8.1                  0.987467494     -19.9771566
8.102                0.987426503     -20.0084334
8.104                0.987397606     -20.0396669
8.106                0.987404335     -20.0709929
8.108                0.987415755     -20.1023623
8.11                 0.987431886     -20.1337728
8.112                0.987452751     -20.1652221
8.114                0.987513134      -20.199541
8.116                0.987570787     -20.2338408
8.118                0.987625688     -20.2681193
8.12                 0.987677826     -20.3023756
8.122                0.987734358     -20.3405783
8.124                0.987786065     -20.3787936
8.126                0.987832914     -20.4170166
8.128                0.987874878      -20.455242
8.13                 0.987878849     -20.4957094
8.132                0.987877134     -20.5362691
8.134                0.987869698     -20.5769149
8.136                0.987856496     -20.6176404
8.138                0.987795206     -20.6573789
8.14                 0.987729431     -20.6971668
8.142                0.987659168     -20.7370021
8.144                0.987584412     -20.7768828
8.146                 0.98748794     -20.8135004
8.148                0.987392818      -20.850079
8.15                 0.987299042     -20.8866185
8.152                0.987206605     -20.9231186
8.154                 0.98713199     -20.9565793
8.156                0.987064099     -20.9900191
8.158                0.987002921     -21.0234326
8.16                 0.986948455     -21.0568142
8.162                0.986941188     -21.0896278
8.164                 0.98693865     -21.1224657
8.166                0.986940856     -21.1553254
8.168                0.986947822     -21.1882042
8.17                 0.987001021     -21.2236884
8.172                0.987054123      -21.259162
8.174                0.987107121     -21.2946248
8.176                0.987160014     -21.3300776
8.178                 0.98722062     -21.3697818
8.18                 0.987278779     -21.4094707
8.182                0.987334478     -21.4491425
8.184                0.987387701     -21.4887958
8.186                 0.98740019     -21.5314658
8.188                 0.98740888     -21.5741836
8.19                 0.987413746     -21.6169463
8.192                0.987414765      -21.659751
8.194                0.987357938      -21.702253
8.196                0.987297098     -21.7448048
8.198                0.987232249     -21.7874045
8.2                  0.987163376     -21.8300498