! TOUCHSTONE file generated by CST DESIGN STUDIO
! Date and time: Mon Feb 10 16:50:48 2025
! Project name: C:\Work\MatlabApps\UnitCellType2OptimizationMatlab\CST\unitcell.cst
! Tree item: Tasks\Sweep1\SPara1\S-Parameters
! Header version: 2024
! Port assignment regex: !\s*Touchstone port\s*([0-9]+)\s*=\s*(CST MWS port|CST DES external port|CST DES block port)\s*(.+)\s* \(\"(.*)\"\)(\s*mode\s*([0-9]+))?.*
! Touchstone port assignment:
! Touchstone port 1 = CST DES external port 1 ("")
# GHz S MA R 50
7                    0.994206597     -12.9707608
7.002                0.994199469     -12.9897239
7.004                0.994192319     -13.0087123
7.006                0.994185146     -13.0277261
7.008                 0.99417795     -13.0467654
7.01                 0.994170731     -13.0658301
7.012                0.994163489     -13.0849205
7.014                0.994156224     -13.1040365
7.016                0.994148936     -13.1231783
7.018                0.994141624     -13.1423458
7.02                  0.99413429     -13.1615392
7.022                0.994126932     -13.1807586
7.024                0.994119552     -13.2000039
7.026                0.994112148     -13.2192754
7.028                 0.99410472     -13.2385729
7.03                 0.994097269     -13.2578967
7.032                0.994089795     -13.2772468
7.034                0.994082297     -13.2966233
7.036                0.994074776     -13.3160262
7.038                0.994067231     -13.3354556
7.04                 0.994059663     -13.3549115
7.042                0.994052071     -13.3743941
7.044                0.994044455     -13.3939035
7.046                0.994036816     -13.4134396
7.048                0.994029153     -13.4330026
7.05                 0.994021466     -13.4525925
7.052                0.994013755     -13.4722095
7.054                 0.99400602     -13.4918535
7.056                0.993998261     -13.5115247
7.058                0.993990479     -13.5312232
7.06                 0.993982672     -13.5509489
7.062                0.993974841      -13.570702
7.064                0.993966986     -13.5904826
7.066                0.993959106     -13.6102908
7.068                0.993951203     -13.6301265
7.07                 0.993943275     -13.6499899
7.072                0.993935322     -13.6698811
7.074                0.993927346     -13.6898001
7.076                0.993919345     -13.7097471
7.078                0.993911319      -13.729722
7.08                 0.993903269      -13.749725
7.082                0.993895194     -13.7697562
7.084                0.993887094     -13.7898156
7.086                 0.99387897     -13.8099033
7.088                0.993870821     -13.8300193
7.09                 0.993862647     -13.8501638
7.092                0.993854448     -13.8703369
7.094                0.993846225     -13.8905386
7.096                0.993837976      -13.910769
7.098                0.993829702     -13.9310281
7.1                  0.993821404     -13.9513162
7.102                 0.99381308     -13.9716331
7.104                 0.99380473     -13.9919791
7.106                0.993796356     -14.0123542
7.108                0.993787956     -14.0327584
7.11                 0.993779531      -14.053192
7.112                 0.99377108     -14.0736548
7.114                0.993762604     -14.0941471
7.116                0.993754103     -14.1146689
7.118                0.993745575     -14.1352203
7.12                 0.993737022     -14.1558014
7.122                0.993728444     -14.1764122
7.124                0.993719839     -14.1970528
7.126                0.993711209     -14.2177234
7.128                0.993702553      -14.238424
7.13                 0.993693871     -14.2591547
7.132                0.993685162     -14.2799156
7.134                0.993676428     -14.3007067
7.136                0.993667668     -14.3215282
7.138                0.993658881     -14.3423801
7.14                 0.993650068     -14.3632625
7.142                0.993641228     -14.3841755
7.144                0.993632363     -14.4051193
7.146                 0.99362347     -14.4260938
7.148                0.993614552     -14.4470992
7.15                 0.993605606     -14.4681355
7.152                0.993596634     -14.4892029
7.154                0.993587635     -14.5103014
7.156                 0.99357861     -14.5314311
7.158                0.993569557     -14.5525921
7.16                 0.993560478     -14.5737846
7.162                0.993551371     -14.5950085
7.164                0.993542238      -14.616264
7.166                0.993533077     -14.6375511
7.168                0.993523889       -14.65887
7.17                 0.993514674     -14.6802208
7.172                0.993505431     -14.7016035
7.174                0.993496161     -14.7230183
7.176                0.993486864     -14.7444651
7.178                0.993477538     -14.7659442
7.18                 0.993468186     -14.7874556
7.182                0.993458805     -14.8089994
7.184                0.993449397     -14.8305756
7.186                0.993439961     -14.8521845
7.188                0.993430496      -14.873826
7.19                 0.993421004     -14.8955004
7.192                0.993411484     -14.9172076
7.194                0.993401935     -14.9389477
7.196                0.993392359     -14.9607209
7.198                0.993382754     -14.9825273
7.2                   0.99337312     -15.0043669
7.202                0.993363458     -15.0262399
7.204                0.993353767     -15.0481463
7.206                0.993344048     -15.0700863
7.208                  0.9933343     -15.0920599
7.21                 0.993324523     -15.1140672
7.212                0.993314718     -15.1361084
7.214                0.993304883     -15.1581835
7.216                0.993295019     -15.1802927
7.218                0.993285126      -15.202436
7.22                 0.993275204     -15.2246135
7.222                0.993265252     -15.2468253
7.224                0.993255271     -15.2690716
7.226                0.993245261     -15.2913524
7.228                0.993235221     -15.3136679
7.23                 0.993225151     -15.3360181
7.232                0.993215052     -15.3584031
7.234                0.993204922     -15.3808231
7.236                0.993194763     -15.4032781
7.238                0.993184573     -15.4257683
7.24                 0.993174354     -15.4482937
7.242                0.993164104     -15.4708545
7.244                0.993153824     -15.4934507
7.246                0.993143513     -15.5160825
7.248                0.993133172       -15.53875
7.25                 0.993122801     -15.5614532
7.252                0.993112398     -15.5841924
7.254                0.993101965     -15.6069675
7.256                0.993091501     -15.6297787
7.258                0.993081006     -15.6526261
7.26                  0.99307048     -15.6755099
7.262                0.993059922       -15.69843
7.264                0.993049334     -15.7213867
7.266                0.993038714       -15.74438
7.268                0.993028062     -15.7674101
7.27                 0.993017379      -15.790477
7.272                0.993006664     -15.8135809
7.274                0.992995917     -15.8367218
7.276                0.992985138        -15.8599
7.278                0.992974327     -15.8831154
7.28                 0.992963484     -15.9063683
7.282                0.992952609     -15.9296587
7.284                0.992941701     -15.9529867
7.286                0.992930761     -15.9763525
7.288                0.992919789     -15.9997561
7.29                 0.992908783     -16.0231977
7.292                0.992897745     -16.0466774
7.294                0.992886674     -16.0701953
7.296                 0.99287557     -16.0937516
7.298                0.992864432     -16.1173463
7.3                  0.992853262     -16.1409795
7.302                0.992842057     -16.1646514
7.304                 0.99283082     -16.1883621
7.306                0.992819549     -16.2121117
7.308                0.992808243     -16.2359004
7.31                 0.992796905     -16.2597281
7.312                0.992785532     -16.2835952
7.314                0.992774124     -16.3075016
7.316                0.992762683     -16.3314476
7.318                0.992751207     -16.3554331
7.32                 0.992739697     -16.3794584
7.322                0.992728152     -16.4035236
7.324                0.992716572     -16.4276288
7.326                0.992704958     -16.4517741
7.328                0.992693308     -16.4759596
7.33                 0.992681623     -16.5001855
7.332                0.992669903     -16.5244519
7.334                0.992658147     -16.5487589
7.336                0.992646356     -16.5731066
7.338                0.992634529     -16.5974952
7.34                 0.992622666     -16.6219247
7.342                0.992610768     -16.6463954
7.344                0.992598833     -16.6709073
7.346                0.992586861     -16.6954606
7.348                0.992574854     -16.7200554
7.35                 0.992562809     -16.7446919
7.352                0.992550728       -16.76937
7.354                 0.99253861     -16.7940901
7.356                0.992526456     -16.8188522
7.358                0.992514264     -16.8436564
7.36                 0.992502034     -16.8685029
7.362                0.992489767     -16.8933918
7.364                0.992477463     -16.9183233
7.366                0.992465121     -16.9432975
7.368                 0.99245274     -16.9683144
7.37                 0.992440322     -16.9933743
7.372                0.992427865     -17.0184773
7.374                0.992415371     -17.0436235
7.376                0.992402837     -17.0688131
7.378                0.992390265     -17.0940461
7.38                 0.992377653     -17.1193228
7.382                0.992365003     -17.1446432
7.384                0.992352314     -17.1700075
7.386                0.992339585     -17.1954159
7.388                0.992326816     -17.2208685
7.39                 0.992314008     -17.2463654
7.392                 0.99230116     -17.2719067
7.394                0.992288272     -17.2974926
7.396                0.992275343     -17.3231233
7.398                0.992262374     -17.3487989
7.4                  0.992249364     -17.3745195
7.402                0.992236314     -17.4002853
7.404                0.992223223     -17.4260964
7.406                 0.99221009     -17.4519529
7.408                0.992196916     -17.4778551
7.41                   0.9921837      -17.503803
7.412                0.992170443     -17.5297969
7.414                0.992157144     -17.5558367
7.416                0.992143803     -17.5819228
7.418                0.992130419     -17.6080552
7.42                 0.992116993     -17.6342341
7.422                0.992103524     -17.6604597
7.424                0.992090012      -17.686732
7.426                0.992076458     -17.7130513
7.428                0.992062859     -17.7394177
7.43                 0.992049218     -17.7658314
7.432                0.992035532     -17.7922925
7.434                0.992021803     -17.8188011
7.436                 0.99200803     -17.8453574
7.438                0.991994212     -17.8719616
7.44                  0.99198035     -17.8986138
7.442                0.991966443     -17.9253142
7.444                0.991952491      -17.952063
7.446                0.991938493     -17.9788602
7.448                0.991924451     -18.0057061
7.45                 0.991910362     -18.0326008
7.452                0.991896228     -18.0595445
7.454                0.991882048     -18.0865373
7.456                0.991867822     -18.1135794
7.458                0.991853548      -18.140671
7.46                 0.991839229     -18.1678122
7.462                0.991824862     -18.1950032
7.464                0.991810448     -18.2222441
7.466                0.991795986     -18.2495352
7.468                0.991781477     -18.2768765
7.47                 0.991766919     -18.3042683
7.472                0.991752314     -18.3317107
7.474                 0.99173766     -18.3592038
7.476                0.991722958      -18.386748
7.478                0.991708206     -18.4143432
7.48                 0.991693405     -18.4419898
7.482                0.991678555     -18.4696878
7.484                0.991663655     -18.4974374
7.486                0.991648705     -18.5252388
7.488                0.991633705     -18.5530923
7.49                 0.991618655     -18.5809979
7.492                0.991603554     -18.6089558
7.494                0.991588401     -18.6369662
7.496                0.991573198     -18.6650293
7.498                0.991557943     -18.6931453
7.5                  0.991542636     -18.7213143
7.502                0.991527277     -18.7495365
7.504                0.991511865     -18.7778121
7.506                0.991496401     -18.8061414
7.508                0.991480884     -18.8345243
7.51                 0.991465314     -18.8629612
7.512                 0.99144969     -18.8914523
7.514                0.991434013     -18.9199976
7.516                0.991418281     -18.9485974
7.518                0.991402495      -18.977252
7.52                 0.991386655     -19.0059613
7.522                0.991370759     -19.0347258
7.524                0.991354808     -19.0635455
7.526                0.991338801     -19.0924206
7.528                0.991322739     -19.1213513
7.53                  0.99130662     -19.1503379
7.532                0.991290445     -19.1793804
7.534                0.991274213     -19.2084792
7.536                0.991257924     -19.2376343
7.538                0.991241577     -19.2668461
7.54                 0.991225173     -19.2961146
7.542                 0.99120871     -19.3254401
7.544                0.991192189     -19.3548228
7.546                0.991175609     -19.3842628
7.548                 0.99115897     -19.4137605
7.55                 0.991142272     -19.4433159
7.552                0.991125514     -19.4729292
7.554                0.991108696     -19.5026008
7.556                0.991091817     -19.5323307
7.558                0.991074877     -19.5621192
7.56                 0.991057876     -19.5919665
7.562                0.991040814     -19.6218728
7.564                 0.99102369     -19.6518383
7.566                0.991006503     -19.6818633
7.568                0.990989254     -19.7119478
7.57                 0.990971942     -19.7420922
7.572                0.990954567     -19.7722966
7.574                0.990937128     -19.8025612
7.576                0.990919624     -19.8328863
7.578                0.990902057     -19.8632721
7.58                 0.990884424     -19.8937188
7.582                0.990866726     -19.9242267
7.584                0.990848963     -19.9547958
7.586                0.990831134     -19.9854265
7.588                0.990813238     -20.0161189
7.59                 0.990795275     -20.0468734
7.592                0.990777245       -20.07769
7.594                0.990759148     -20.1085691
7.596                0.990740983     -20.1395108
7.598                0.990722749     -20.1705154
7.6                  0.990704446     -20.2015831
7.602                0.990686074     -20.2327142
7.604                0.990667632     -20.2639088
7.606                0.990649121     -20.2951672
7.608                0.990630538     -20.3264896
7.61                 0.990611885     -20.3578762
7.612                0.990593161     -20.3893274
7.614                0.990574364     -20.4208432
7.616                0.990555496     -20.4524241
7.618                0.990536554     -20.4840701
7.62                  0.99051754     -20.5157815
7.622                0.990498451     -20.5475586
7.624                0.990479289     -20.5794016
7.626                0.990460052     -20.6113107
7.628                0.990440741     -20.6432863
7.63                 0.990421353     -20.6753284
7.632                 0.99040189     -20.7074374
7.634                0.990382351     -20.7396136
7.636                0.990362734     -20.7718571
7.638                 0.99034304     -20.8041683
7.64                 0.990323269     -20.8365473
7.642                0.990303419     -20.8689944
7.644                 0.99028349     -20.9015099
7.646                0.990263482      -20.934094
7.648                0.990243394      -20.966747
7.65                 0.990223226     -20.9994691
7.652                0.990202976     -21.0322606
7.654                0.990182646     -21.0651217
7.656                0.990162233     -21.0980528
7.658                0.990141739      -21.131054
7.66                 0.990121161     -21.1641257
7.662                  0.9901005     -21.1972681
7.664                0.990079755     -21.2304814
7.666                0.990058925     -21.2637659
7.668                 0.99003801      -21.297122
7.67                  0.99001701     -21.3305498
7.672                0.989995923     -21.3640496
7.674                 0.98997475     -21.3976218
7.676                0.989953489     -21.4312665
7.678                0.989932141     -21.4649841
7.68                 0.989910704     -21.4987749
7.682                0.989889178      -21.532639
7.684                0.989867563     -21.5665768
7.686                0.989845858     -21.6005886
7.688                0.989824061     -21.6346747
7.69                 0.989802174     -21.6688353
7.692                0.989780194     -21.7030707
7.694                0.989758122     -21.7373812
7.696                0.989735957     -21.7717672
7.698                0.989713698     -21.8062288
7.7                  0.989691345     -21.8407664
7.702                0.989668896     -21.8753803
7.704                0.989646352     -21.9100707
7.706                0.989623712      -21.944838
7.708                0.989600975     -21.9796825
7.71                 0.989578141     -22.0146044
7.712                0.989555208     -22.0496041
7.714                0.989532177     -22.0846818
7.716                0.989509046      -22.119838
7.718                0.989485815     -22.1550728
7.72                 0.989462483     -22.1903865
7.722                0.989439049     -22.2257796
7.724                0.989415514     -22.2612523
7.726                0.989391876     -22.2968049
7.728                0.989368134     -22.3324377
7.73                 0.989344288      -22.368151
7.732                0.989320337     -22.4039452
7.734                0.989296281     -22.4398206
7.736                0.989272118     -22.4757775
7.738                0.989247849     -22.5118162
7.74                 0.989223471     -22.5479371
7.742                0.989198985     -22.5841404
7.744                 0.98917439     -22.6204266
7.746                0.989149686     -22.6567959
7.748                 0.98912487     -22.6932486
7.75                 0.989099943     -22.7297851
7.752                0.989074904     -22.7664058
7.754                0.989049752     -22.8031109
7.756                0.989024486     -22.8399009
7.758                0.988999106      -22.876776
7.76                 0.988973611     -22.9137366
7.762                   0.988948      -22.950783
7.764                0.988922271     -22.9879156
7.766                0.988896426     -23.0251347
7.768                0.988870462     -23.0624408
7.77                 0.988844379      -23.099834
7.772                0.988818176     -23.1373148
7.774                0.988791852     -23.1748836
7.776                0.988765406     -23.2125407
7.778                0.988738838     -23.2502865
7.78                 0.988712147     -23.2881212
7.782                0.988685331     -23.3260454
7.784                0.988658391     -23.3640593
7.786                0.988631325     -23.4021634
7.788                0.988604132     -23.4403579
7.79                 0.988576811     -23.4786433
7.792                0.988549362       -23.51702
7.794                0.988521784     -23.5554882
7.796                0.988494076     -23.5940485
7.798                0.988466236     -23.6327012
7.8                  0.988438265     -23.6714466
7.802                0.988410161     -23.7102851
7.804                0.988381922     -23.7492172
7.806                 0.98835355     -23.7882432
7.808                0.988325041     -23.8273636
7.81                 0.988296396     -23.8665786
7.812                0.988267613     -23.9058888
7.814                0.988238692     -23.9452944
7.816                0.988209631      -23.984796
7.818                 0.98818043     -24.0243939
7.82                 0.988151088     -24.0640884
7.822                0.988121603     -24.1038802
7.824                0.988091975     -24.1437694
7.826                0.988062203     -24.1837566
7.828                0.988032285     -24.2238422
7.83                 0.988002221     -24.2640265
7.832                 0.98797201     -24.3043101
7.834                 0.98794165     -24.3446932
7.836                0.987911141     -24.3851765
7.838                0.987880482     -24.4257602
7.84                 0.987849671     -24.4664448
7.842                0.987818707     -24.5072307
7.844                 0.98778759     -24.5481184
7.846                0.987756318     -24.5891083
7.848                0.987724891     -24.6302009
7.85                 0.987693307     -24.6713966
7.852                0.987661565     -24.7126958
7.854                0.987629663     -24.7540989
7.856                0.987597602     -24.7956066
7.858                 0.98756538     -24.8372191
7.86                 0.987532995     -24.8789369
7.862                0.987500447     -24.9207606
7.864                0.987467734     -24.9626905
7.866                0.987434855     -25.0047272
7.868                0.987401809     -25.0468711
7.87                 0.987368596     -25.0891226
7.872                0.987335213     -25.1314822
7.874                0.987301659     -25.1739505
7.876                0.987267934     -25.2165279
7.878                0.987234036     -25.2592148
7.88                 0.987199964     -25.3020118
7.882                0.987165717     -25.3449193
7.884                0.987131293     -25.3879379
7.886                0.987096692     -25.4310679
7.888                0.987061911       -25.47431
7.89                 0.987026951     -25.5176647
7.892                0.986991809     -25.5611323
7.894                0.986956484     -25.6047135
7.896                0.986920975     -25.6484086
7.898                 0.98688528     -25.6922184
7.9                  0.986849399     -25.7361432
7.902                 0.98681333     -25.7801835
7.904                0.986777072       -25.82434
7.906                0.986740623      -25.868613
7.908                0.986703982     -25.9130032
7.91                 0.986667148     -25.9575111
7.912                 0.98663012     -26.0021372
7.914                0.986592895      -26.046882
7.916                0.986555472     -26.0917461
7.918                0.986517851       -26.13673
7.92                  0.98648003     -26.1818343
7.922                0.986442007     -26.2270595
7.924                0.986403781     -26.2724061
7.926                0.986365351     -26.3178748
7.928                0.986326715     -26.3634661
7.93                 0.986287871     -26.4091805
7.932                0.986248818     -26.4550186
7.934                0.986209556      -26.500981
7.936                0.986170081     -26.5470683
7.938                0.986130393      -26.593281
7.94                  0.98609049     -26.6396197
7.942                0.986050371      -26.686085
7.944                0.986010034     -26.7326775
7.946                0.985969478     -26.7793978
7.948                0.985928701     -26.8262464
7.95                 0.985887701      -26.873224
7.952                0.985846477     -26.9203312
7.954                0.985805027     -26.9675686
7.956                0.985763351     -27.0149368
7.958                0.985721445     -27.0624363
7.96                 0.985679309     -27.1100679
7.962                 0.98563694     -27.1578321
7.964                0.985594338     -27.2057296
7.966                  0.9855515      -27.253761
7.968                0.985508426      -27.301927
7.97                 0.985465112     -27.3502281
7.972                0.985421558      -27.398665
7.974                0.985377762     -27.4472383
7.976                0.985333721     -27.4959488
7.978                0.985289435     -27.5447971
7.98                 0.985244902     -27.5937837
7.982                0.985200119     -27.6429095
7.984                0.985155086      -27.692175
7.986                0.985109799     -27.7415809
7.988                0.985064258     -27.7911279
7.99                 0.985018461     -27.8408167
7.992                0.984972406      -27.890648
7.994                 0.98492609     -27.9406224
7.996                0.984879513     -27.9907406
7.998                0.984832671     -28.0410034
8                    0.984785565     -28.0914114
8.002                 0.98473819     -28.1419654
8.004                0.984690546      -28.192666
8.006                0.984642631      -28.243514
8.008                0.984594442     -28.2945101
8.01                 0.984545978      -28.345655
8.012                0.984497237     -28.3969495
8.014                0.984448216     -28.4483942
8.016                0.984398914       -28.49999
8.018                0.984349329     -28.5517375
8.02                 0.984299459     -28.6036376
8.022                0.984249301     -28.6556909
8.024                0.984198854     -28.7078982
8.026                0.984148115     -28.7602604
8.028                0.984097082     -28.8127781
8.03                 0.984045754     -28.8654521
8.032                0.983994128     -28.9182832
8.034                0.983942202     -28.9712723
8.036                0.983889974       -29.02442
8.038                0.983837442     -29.0777272
8.04                 0.983784603     -29.1311947
8.042                0.983731455     -29.1848232
8.044                0.983677997     -29.2386137
8.046                0.983624225     -29.2925668
8.048                0.983570137     -29.3466835
8.05                 0.983515732     -29.4009646
8.052                0.983461007     -29.4554108
8.054                 0.98340596     -29.5100231
8.056                0.983350587     -29.5648023
8.058                0.983294888     -29.6197491
8.06                 0.983238859     -29.6748646
8.062                0.983182499     -29.7301495
8.064                0.983125804     -29.7856047
8.066                0.983068773      -29.841231
8.068                0.983011402     -29.8970294
8.07                  0.98295369     -29.9530008
8.072                0.982895634      -30.009146
8.074                0.982837232     -30.0654659
8.076                 0.98277848     -30.1219614
8.078                0.982719377     -30.1786335
8.08                 0.982659919      -30.235483
8.082                0.982600105     -30.2925108
8.084                0.982539932      -30.349718
8.086                0.982479396     -30.4071054
8.088                0.982418496      -30.464674
8.09                 0.982357228     -30.5224247
8.092                0.982295591     -30.5803584
8.094                0.982233581     -30.6384762
8.096                0.982171195      -30.696779
8.098                0.982108431     -30.7552677
8.1                  0.982045287     -30.8139434
8.102                0.981981758     -30.8728071
8.104                0.981917843     -30.9318596
8.106                0.981853539     -30.9911021
8.108                0.981788842     -31.0505355
8.11                  0.98172375     -31.1101608
8.112                 0.98165826     -31.1699791
8.114                0.981592369     -31.2299914
8.116                0.981526074     -31.2901987
8.118                0.981459373     -31.3506021
8.12                 0.981392261     -31.4112026
8.122                0.981324736     -31.4720013
8.124                0.981256795     -31.5329992
8.126                0.981188435     -31.5941975
8.128                0.981119653     -31.6555971
8.13                 0.981050445     -31.7171992
8.132                0.980980809     -31.7790049
8.134                0.980910741     -31.8410153
8.136                0.980840239     -31.9032314
8.138                0.980769298     -31.9656544
8.14                 0.980697915     -32.0282855
8.142                0.980626088     -32.0911258
8.144                0.980553813     -32.1541763
8.146                0.980481087     -32.2174383
8.148                0.980407906     -32.2809129
8.15                 0.980334266     -32.3446014
8.152                0.980260166     -32.4085047
8.154                  0.9801856     -32.4726242
8.156                0.980110565      -32.536961
8.158                0.980035059     -32.6015164
8.16                 0.979959077     -32.6662915
8.162                0.979882615     -32.7312876
8.164                0.979805671     -32.7965059
8.166                0.979728241     -32.8619475
8.168                 0.97965032     -32.9276139
8.17                 0.979571906     -32.9935062
8.172                0.979492994     -33.0596256
8.174                0.979413581     -33.1259736
8.176                0.979333663     -33.1925512
8.178                0.979253236     -33.2593599
8.18                 0.979172296     -33.3264009
8.182                 0.97909084     -33.3936756
8.184                0.979008863     -33.4611852
8.186                0.978926362     -33.5289311
8.188                0.978843332     -33.5969146
8.19                 0.978759769     -33.6651371
8.192                 0.97867567     -33.7335999
8.194                 0.97859103     -33.8023045
8.196                0.978505846     -33.8712521
8.198                0.978420112     -33.9404442
8.2                  0.978333825     -34.0098822