! TOUCHSTONE file generated by CST DESIGN STUDIO
! Date and time: Mon Feb 10 16:50:49 2025
! Project name: C:\Work\MatlabApps\UnitCellType2OptimizationMatlab\CST\unitcell.cst
! Tree item: Tasks\Sweep1\SPara1\S-Parameters
! Header version: 2024
! Port assignment regex: !\s*Touchstone port\s*([0-9]+)\s*=\s*(CST MWS port|CST DES external port|CST DES block port)\s*(.+)\s* \(\"(.*)\"\)(\s*mode\s*([0-9]+))?.*
! Touchstone port assignment:
! Touchstone port 1 = CST DES external port 1 ("")
# GHz S MA R 50
7                    0.993421195     -12.3048636
7.002                0.993464869      -12.322724
7.004                0.993508687     -12.3405844
7.006                0.993552648     -12.3584447
7.008                0.993596752     -12.3763052
7.01                 0.993634217     -12.3966547
7.012                0.993671977     -12.4169996
7.014                0.993710034     -12.4373397
7.016                0.993748385     -12.4576754
7.018                0.993750434     -12.4794196
7.02                 0.993752549      -12.501166
7.022                0.993754729     -12.5229146
7.024                0.993756974     -12.5446656
7.026                0.993718388     -12.5657721
7.028                0.993679466     -12.5868815
7.03                 0.993640209     -12.6079939
7.032                0.993600619     -12.6291091
7.034                 0.99354508     -12.6480009
7.036                0.993489259     -12.6668881
7.038                0.993433157     -12.6857709
7.04                 0.993376775     -12.7046491
7.042                0.993340998     -12.7214014
7.044                0.993305228     -12.7381525
7.046                0.993269467     -12.7549024
7.048                0.993233717     -12.7716512
7.05                 0.993240155     -12.7879577
7.052                0.993246653     -12.8042711
7.054                 0.99325321     -12.8205915
7.056                0.993259828     -12.8369188
7.058                0.993300212     -12.8548404
7.06                 0.993340702     -12.8727646
7.062                0.993381296     -12.8906912
7.064                0.993421992     -12.9086201
7.066                0.993464447     -12.9291216
7.068                0.993507177     -12.9496186
7.07                 0.993550183     -12.9701112
7.072                0.993593465     -12.9905992
7.074                0.993604782     -13.0129274
7.076                0.993616255     -13.0352559
7.078                0.993627885     -13.0575848
7.08                 0.993639669      -13.079914
7.082                0.993607709     -13.1020851
7.084                  0.9935755     -13.1242599
7.086                 0.99354304     -13.1464385
7.088                0.993510329     -13.1686205
7.09                 0.993453306     -13.1887736
7.092                0.993395959     -13.2089238
7.094                0.993338288     -13.2290711
7.096                0.993280293     -13.2492156
7.098                0.993235175     -13.2669903
7.1                  0.993190007     -13.2847622
7.102                0.993144788     -13.3025314
7.104                0.993099518     -13.3202981
7.106                0.993094951     -13.3371288
7.108                0.993090442     -13.3539654
7.11                  0.99308599      -13.370808
7.112                0.993081594     -13.3876566
7.114                0.993116607     -13.4057133
7.116                0.993151693     -13.4237745
7.118                0.993186851     -13.4418402
7.12                 0.993222083     -13.4599106
7.122                0.993267871     -13.4805451
7.124                0.993313898      -13.501176
7.126                0.993360166     -13.5218032
7.128                0.993406671     -13.5424271
7.13                 0.993427133     -13.5652714
7.132                0.993447819     -13.5881141
7.134                0.993468727     -13.6109553
7.136                 0.99348986     -13.6337951
7.138                0.993465997     -13.6570019
7.14                 0.993441981     -13.6802125
7.142                0.993417813     -13.7034268
7.144                0.993393494     -13.7266447
7.146                 0.99333706     -13.7481347
7.148                0.993280284     -13.7696235
7.15                 0.993223168     -13.7911112
7.152                0.993165713     -13.8125976
7.154                0.993112431     -13.8315572
7.156                0.993059031     -13.8505133
7.158                0.993005516      -13.869466
7.16                 0.992951886     -13.8884151
7.162                0.992935632     -13.9059463
7.164                0.992919422      -13.923482
7.166                0.992903257     -13.9410222
7.168                0.992887135     -13.9585669
7.17                 0.992914769     -13.9768711
7.172                 0.99294246     -13.9951815
7.174                0.992970204      -14.013498
7.176                0.992998001     -14.0318206
7.178                 0.99304519     -14.0525969
7.18                 0.993092575     -14.0733713
7.182                0.993140157     -14.0941436
7.184                0.993187935     -14.1149138
7.186                0.993216926     -14.1382228
7.188                 0.99324618     -14.1615288
7.19                 0.993275696     -14.1848317
7.192                0.993305474     -14.2081318
7.194                0.993290744     -14.2323395
7.196                0.993275966     -14.2565501
7.198                0.993261142     -14.2807636
7.2                  0.993246267       -14.30498
7.202                0.993192412     -14.3278519
7.204                 0.99313823     -14.3507243
7.206                0.993083721     -14.3735971
7.208                0.993028885     -14.3964704
7.21                  0.99296884     -14.4167651
7.212                0.992908611     -14.4370558
7.214                  0.9928482     -14.4573428
7.216                0.992787606     -14.4776261
7.218                0.992759382     -14.4960435
7.22                 0.992731178     -14.5144635
7.222                0.992702996     -14.5328863
7.224                0.992674834     -14.5513118
7.226                0.992693312     -14.5699901
7.228                0.992711831     -14.5886754
7.23                  0.99273039     -14.6073677
7.232                0.992748993     -14.6260672
7.234                0.992795617     -14.6470189
7.236                0.992842393     -14.6679705
7.238                0.992889319     -14.6889219
7.24                 0.992936396     -14.7098735
7.242                0.992973115     -14.7336027
7.244                0.993010112     -14.7573278
7.246                0.993047386     -14.7810491
7.248                0.993084939     -14.8047664
7.25                 0.993080284     -14.8299363
7.252                0.993075679     -14.8551078
7.254                0.993071128     -14.8802809
7.256                0.993066631     -14.9054555
7.258                0.993017413     -14.9297564
7.26                 0.992967908     -14.9540589
7.262                0.992918118      -14.978363
7.264                0.992868042     -15.0026687
7.266                0.992802902     -15.0244539
7.268                 0.99273752     -15.0462357
7.27                 0.992671899     -15.0680142
7.272                0.992606038     -15.0897892
7.274                0.992565791      -15.109297
7.276                0.992525526     -15.1288057
7.278                0.992485245     -15.1483153
7.28                 0.992444946      -15.167826
7.282                  0.9924524     -15.1870393
7.284                0.992459891     -15.2062598
7.286                0.992467414     -15.2254876
7.288                 0.99247497     -15.2447227
7.29                 0.992518641     -15.2658998
7.292                0.992562423     -15.2870791
7.294                0.992606314     -15.3082604
7.296                0.992650314     -15.3294437
7.298                0.992693407     -15.3535579
7.3                  0.992736771     -15.3776678
7.302                0.992780404     -15.4017736
7.304                0.992824305     -15.4258753
7.306                 0.99283031     -15.4519464
7.308                0.992836458     -15.4780173
7.31                 0.992842749      -15.504088
7.312                0.992849177     -15.5301585
7.314                0.992806739     -15.5559028
7.316                0.992764083     -15.5816494
7.318                0.992721208     -15.6073983
7.32                 0.992678114     -15.6331494
7.322                0.992610153     -15.6565594
7.324                0.992541907     -15.6799668
7.326                0.992473379     -15.7033717
7.328                0.992404569      -15.726774
7.33                 0.992353022     -15.7475925
7.332                0.992301409     -15.7684102
7.334                0.992249732     -15.7892273
7.336                 0.99219799     -15.8100438
7.338                0.992193147      -15.829991
7.34                 0.992188328      -15.849945
7.342                0.992183532     -15.8699057
7.344                0.992178762     -15.8898733
7.346                0.992217143     -15.9113849
7.348                0.992255597     -15.9329005
7.35                 0.992294123     -15.9544202
7.352                0.992332722     -15.9759441
7.354                0.992380449      -16.000444
7.356                0.992428422     -16.0249406
7.358                0.992476639     -16.0494336
7.36                   0.9925251     -16.0739228
7.362                0.992541698     -16.1008603
7.364                0.992558507     -16.1277959
7.366                0.992575529     -16.1547295
7.368                0.992592764     -16.1816611
7.37                 0.992558711     -16.2088667
7.372                0.992524523     -16.2360744
7.374                0.992490202     -16.2632843
7.376                0.992455745     -16.2904963
7.378                0.992386938     -16.3156581
7.38                 0.992317827     -16.3408185
7.382                0.992248413     -16.3659773
7.384                0.992178698     -16.3911345
7.386                0.992116554     -16.4134769
7.388                0.992054288     -16.4358174
7.39                   0.9919919     -16.4581562
7.392                 0.99192939      -16.480493
7.394                0.991910886     -16.5013925
7.396                0.991892395     -16.5222976
7.398                0.991873912     -16.5432083
7.4                  0.991855437     -16.5641248
7.402                0.991885936     -16.5860924
7.404                0.991916481      -16.608066
7.406                0.991947068     -16.6300455
7.408                0.991977699      -16.652031
7.41                 0.992027892     -16.6769219
7.412                0.992078291     -16.7018103
7.414                0.992128895     -16.7266963
7.416                0.992179702       -16.75158
7.418                0.992206464     -16.7793295
7.42                 0.992233487     -16.8070753
7.422                0.992260772     -16.8348175
7.424                0.992288312     -16.8625562
7.426                0.992264182     -16.8912018
7.428                0.992240015     -16.9198487
7.43                 0.992215811     -16.9484969
7.432                0.992191569     -16.9771465
7.434                0.992124358     -17.0041564
7.436                0.992056846     -17.0311657
7.438                0.991989038     -17.0581746
7.44                 0.991920933     -17.0851829
7.442                0.991849697     -17.1092607
7.444                 0.99177828     -17.1333358
7.446                0.991706682     -17.1574082
7.448                0.991634905      -17.181478
7.45                 0.991602142     -17.2035656
7.452                0.991569363     -17.2256573
7.454                 0.99153657     -17.2477532
7.456                0.991503766     -17.2698533
7.458                0.991524213      -17.292435
7.46                  0.99154468     -17.3150239
7.462                0.991565168     -17.3376201
7.464                0.991585676     -17.3602234
7.466                0.991636161     -17.3855521
7.468                0.991686808     -17.4108803
7.47                 0.991737615     -17.4362079
7.472                0.991788582     -17.4615349
7.474                0.991824948     -17.4900677
7.476                0.991861597     -17.5185958
7.478                0.991898533     -17.5471191
7.48                 0.991935755     -17.5756377
7.482                 0.99192306     -17.6057206
7.484                0.991910426     -17.6358034
7.486                0.991897854      -17.665886
7.488                0.991885342     -17.6959685
7.49                 0.991822368     -17.7249343
7.492                0.991759131     -17.7539003
7.494                0.991695632     -17.7828665
7.496                0.991631869     -17.8118326
7.498                0.991553413     -17.8378855
7.5                  0.991474723     -17.8639355
7.502                0.991395799     -17.8899825
7.504                0.991316642     -17.9160265
7.506                0.991269255     -17.9395938
7.508                0.991221822     -17.9631633
7.51                  0.99117434     -17.9867351
7.512                 0.99112681     -18.0103094
7.514                0.991134687     -18.0337389
7.516                0.991142568     -18.0571763
7.518                0.991150451     -18.0806215
7.52                 0.991158336     -18.1040746
7.522                0.991206066      -18.129944
7.524                0.991253907      -18.155815
7.526                0.991301858     -18.1816875
7.528                 0.99134992     -18.2075618
7.53                 0.991394035     -18.2368739
7.532                0.991438435     -18.2661807
7.534                 0.99148312     -18.2954822
7.536                0.991528084     -18.3247786
7.538                0.991527103     -18.3562763
7.54                 0.991526276     -18.3877718
7.542                0.991525603     -18.4192652
7.544                0.991525084     -18.4507566
7.546                0.991468207      -18.481745
7.548                0.991411123     -18.5127337
7.55                 0.991353837     -18.5437227
7.552                0.991296347      -18.574712
7.554                0.991212364     -18.6029342
7.556                0.991128104     -18.6311533
7.558                0.991043569     -18.6593695
7.56                 0.990958758     -18.6875826
7.562                0.990896664     -18.7128888
7.564                0.990834476     -18.7381955
7.566                0.990772196     -18.7635026
7.568                0.990709827     -18.7888102
7.57                 0.990703033     -18.8132979
7.572                0.990696223     -18.8377934
7.574                0.990689396     -18.8622966
7.576                0.990682553     -18.8868076
7.578                 0.99072476     -18.9133095
7.58                 0.990767035     -18.9398153
7.582                0.990809373     -18.9663251
7.584                0.990851773     -18.9928387
7.586                0.990902144     -19.0229161
7.588                0.990952778     -19.0529888
7.59                 0.991003675     -19.0830563
7.592                0.991054834     -19.1131189
7.594                0.991066376     -19.1460008
7.596                0.991078152     -19.1788785
7.598                0.991090161     -19.2117519
7.6                  0.991102401     -19.2446212
7.602                0.991054327     -19.2776951
7.604                0.991006135     -19.3107687
7.606                0.990957824      -19.343842
7.608                0.990909391     -19.3769148
7.61                 0.990822766     -19.4075138
7.612                0.990735845     -19.4381099
7.614                0.990648627     -19.4687033
7.616                0.990561113      -19.499294
7.618                0.990485265     -19.5266576
7.62                 0.990409274     -19.5540197
7.622                0.990333139     -19.5813804
7.624                0.990256861     -19.6087398
7.626                0.990233805     -19.6345959
7.628                0.990210714     -19.6604589
7.63                 0.990187586     -19.6863288
7.632                0.990164424     -19.7122057
7.634                 0.99019816     -19.7395291
7.636                0.990231914     -19.7668586
7.638                0.990265686     -19.7941941
7.64                 0.990299478      -19.821536
7.642                 0.99035381     -19.8524354
7.644                0.990408363     -19.8833308
7.646                0.990463136     -19.9142223
7.648                0.990518127     -19.9451102
7.65                 0.990542043     -19.9793786
7.652                0.990566251     -20.0136407
7.654                0.990590753     -20.0478965
7.656                0.990615548      -20.082146
7.658                0.990578297     -20.1173716
7.66                 0.990541025     -20.1525956
7.662                0.990503737      -20.187818
7.664                0.990466432     -20.2230387
7.666                0.990379729     -20.2562368
7.668                0.990292733      -20.289432
7.67                 0.990205446     -20.3226246
7.672                0.990117868     -20.3558145
7.674                0.990029237     -20.3855743
7.676                0.989940408     -20.4153311
7.678                0.989851381     -20.4450848
7.68                 0.989762161     -20.4748354
7.682                0.989721071     -20.5024004
7.684                0.989679919     -20.5299708
7.686                0.989638705     -20.5575466
7.688                 0.98959743     -20.5851278
7.69                 0.989619152     -20.6135031
7.692                0.989640856     -20.6418864
7.694                0.989662535     -20.6702777
7.696                0.989684191      -20.698677
7.698                  0.9897392     -20.7304795
7.7                  0.989794371       -20.76228
7.702                0.989849703     -20.7940785
7.704                0.989905196      -20.825875
7.706                0.989940338     -20.8615253
7.708                0.989975805     -20.8971676
7.71                 0.990011598     -20.9328019
7.712                0.990047712     -20.9684284
7.714                 0.99002265      -21.005832
7.716                0.989997682     -21.0432317
7.718                0.989972808     -21.0806277
7.72                 0.989948022     -21.1180198
7.722                0.989863896     -21.1539721
7.724                0.989779514     -21.1899214
7.726                0.989694875     -21.2258677
7.728                0.989609981     -21.2618111
7.73                 0.989510255     -21.2942737
7.732                0.989410282     -21.3267314
7.734                0.989310062     -21.3591845
7.736                0.989209596      -21.391633
7.738                0.989149751     -21.4212558
7.74                 0.989089814     -21.4508816
7.742                0.989029785     -21.4805106
7.744                0.988969664     -21.5101427
7.746                0.988976669     -21.5398308
7.748                 0.98898361     -21.5695282
7.75                 0.988990489     -21.5992349
7.752                0.988997309     -21.6289512
7.754                0.989050342     -21.6617771
7.756                0.989103461     -21.6946036
7.758                0.989156669     -21.7274307
7.76                 0.989209964     -21.7602585
7.762                0.989255597     -21.7973229
7.764                0.989301556     -21.8343786
7.766                0.989347845     -21.8714254
7.768                0.989394461      -21.908463
7.77                  0.98938345     -21.9481163
7.772                0.989372643      -21.987763
7.774                0.989362046      -22.027403
7.776                0.989351658     -22.0670363
7.778                0.989273318     -22.1059646
7.78                  0.98919479     -22.1448889
7.782                0.989116077     -22.1838092
7.784                0.989037177     -22.2227255
7.786                0.988928598     -22.2582767
7.788                0.988819737     -22.2938218
7.79                 0.988710594     -22.3293606
7.792                0.988601171     -22.3648929
7.794                0.988521904     -22.3970254
7.796                 0.98844251     -22.4291581
7.798                0.988362987      -22.461291
7.8                  0.988283335     -22.4934242
7.802                0.988272222     -22.5248015
7.804                0.988261015     -22.5561888
7.806                0.988249708      -22.587586
7.808                0.988238301     -22.6189932
7.81                  0.98828521     -22.6530541
7.812                 0.98833212     -22.6871191
7.814                0.988379027      -22.721188
7.816                0.988425932      -22.755261
7.818                0.988479548     -22.7938131
7.82                 0.988533456     -22.8323559
7.822                0.988587657     -22.8708895
7.824                0.988642147     -22.9094141
7.826                0.988645419     -22.9513771
7.828                0.988649006     -22.9933299
7.83                 0.988652909     -23.0352724
7.832                 0.98865712     -23.0772047
7.834                0.988586818     -23.1192833
7.836                0.988516435      -23.161356
7.838                0.988445973     -23.2034227
7.84                 0.988375431     -23.2454835
7.842                0.988259965     -23.2844709
7.844                0.988144199     -23.3234499
7.846                0.988028137     -23.3624206
7.848                0.987911778     -23.4013831
7.85                 0.987812531     -23.4364692
7.852                 0.98771312     -23.4715515
7.854                0.987613545     -23.5066299
7.856                0.987513809     -23.5417046
7.858                 0.98748121     -23.5751476
7.86                 0.987448473     -23.6086002
7.862                0.987415599     -23.6420624
7.864                0.987382593     -23.6755345
7.866                0.987419203     -23.7110322
7.868                0.987455699     -23.7465379
7.87                 0.987492079     -23.7820518
7.872                0.987528344     -23.8175739
7.874                0.987587414     -23.8576695
7.876                0.987646693     -23.8977576
7.878                0.987706179     -23.9378376
7.88                 0.987765872     -23.9779097
7.882                 0.98778414     -24.0222015
7.884                0.987802814     -24.0664794
7.886                0.987821897      -24.110743
7.888                0.987841391     -24.1549924
7.89                 0.987782606     -24.2003787
7.892                0.987723895     -24.2457555
7.894                0.987665259     -24.2911231
7.896                0.987606695     -24.3364811
7.898                0.987488159     -24.3792609
7.9                  0.987369354     -24.4220296
7.902                0.987250282     -24.4647872
7.904                 0.98713094     -24.5075332
7.906                0.987013234     -24.5460838
7.908                0.986895349     -24.5846247
7.91                 0.986777285     -24.6231559
7.912                0.986659041     -24.6616773
7.914                0.986603193      -24.697688
7.916                0.986547185     -24.7337063
7.918                0.986491013     -24.7697325
7.92                 0.986434677     -24.8057667
7.922                0.986457512     -24.8430631
7.924                0.986480081     -24.8803734
7.926                 0.98650238     -24.9176976
7.928                0.986524407     -24.9550358
7.93                 0.986586489      -24.996872
7.932                0.986648607     -25.0387035
7.934                0.986710757     -25.0805304
7.936                0.986772939     -25.1223531
7.938                0.986806467     -25.1691323
7.94                 0.986840473     -25.2158926
7.942                 0.98687496     -25.2626338
7.944                0.986909919     -25.3093564
7.946                 0.98686549     -25.3583106
7.948                 0.98682138     -25.4072495
7.95                  0.98677759     -25.4561731
7.952                0.986734121     -25.5050812
7.954                0.986615718     -25.5521427
7.956                0.986497143     -25.5991877
7.958                0.986378399     -25.6462164
7.96                 0.986259484     -25.6932286
7.962                0.986123595     -25.7358952
7.964                0.985987573     -25.7785398
7.966                0.985851414     -25.8211624
7.968                0.985715117     -25.8637626
7.97                 0.985632337     -25.9029577
7.972                0.985549413     -25.9421548
7.974                0.985466345     -25.9813539
7.976                 0.98538314     -26.0205552
7.978                0.985386626     -26.0600454
7.98                 0.985389548      -26.099561
7.982                0.985391899     -26.1391018
7.984                0.985393675     -26.1786675
7.986                0.985454882     -26.2224002
7.988                0.985515687     -26.2661384
7.99                 0.985576081     -26.3098814
7.992                0.985636061     -26.3536288
7.994                0.985685264     -26.4029722
7.996                0.985735022     -26.4522868
7.998                0.985785343     -26.5015727
8                    0.985836234     -26.5508305
8.002                0.985810721     -26.6036204
8.004                0.985786455     -26.6563736
8.006                0.985763433     -26.7090889
8.008                0.985741651      -26.761765
8.01                 0.985630408     -26.8137694
8.012                0.985519478     -26.8657327
8.014                0.985408855     -26.9176548
8.016                0.985298513     -26.9695355
8.018                0.985148931     -27.0175879
8.02                 0.984999251     -27.0654582
8.022                0.984849104     -27.1131543
8.024                0.984698149     -27.1606864
8.026                0.984580898     -27.2048147
8.028                0.984466294     -27.2486378
8.03                 0.984353405     -27.2921362
8.032                0.984241286      -27.335298
8.034                0.984210166     -27.3778538
8.036                0.984178982     -27.4206209
8.038                0.984148039     -27.4636011
8.04                 0.984117645     -27.5067953
8.042                 0.98416088     -27.5526558
8.044                0.984201362     -27.5988473
8.046                0.984238464     -27.6453574
8.048                0.984271576     -27.6921701
8.05                   0.9843218     -27.7437948
8.052                0.984367988     -27.7956452
8.054                 0.98440955     -27.8476902
8.056                0.984445953     -27.8998957
8.058                0.984429526     -27.9557366
8.06                 0.984410203     -28.0117089
8.062                0.984387663      -28.067795
8.064                0.984361615     -28.1239753
8.066                0.984253077     -28.1798384
8.068                0.984142677     -28.2357668
8.07                 0.984030304     -28.2917538
8.072                0.983915838     -28.3477914
8.074                0.983756281     -28.3997199
8.076                0.983595341     -28.4516848
8.078                0.983432987     -28.5036839
8.08                 0.983269188     -28.5557149
8.082                0.983137365      -28.603047
8.084                0.983004753       -28.65039
8.086                0.982871351     -28.6977439
8.088                0.982737157     -28.7451086
8.09                 0.982692114     -28.7910159
8.092                0.982647425     -28.8369049
8.094                0.982603071     -28.8827753
8.096                0.982559061     -28.9286271
8.098                0.982598542     -28.9778266
8.1                  0.982639143     -29.0269962
8.102                0.982680858     -29.0761344
8.104                 0.98272368     -29.1252396
8.106                0.982785276     -29.1807178
8.108                0.982847636     -29.2361723
8.11                 0.982910761     -29.2916025
8.112                0.982974653     -29.3470084
8.114                0.982976849     -29.4079203
8.116                0.982979093      -29.468813
8.118                0.982981396     -29.5296852
8.12                 0.982983748     -29.5905369
8.122                0.982882832     -29.6525895
8.124                0.982781421     -29.7146311
8.126                0.982679511     -29.7766616
8.128                0.982577094     -29.8386806
8.13                 0.982401671     -29.8970793
8.132                0.982225398     -29.9554794
8.134                0.982048278      -30.013881
8.136                0.981870308     -30.0722829
8.138                0.981702951     -30.1252191
8.14                 0.981534879     -30.1781581
8.142                0.981366091     -30.2310999
8.144                0.981196585     -30.2840443
8.146                0.981114464     -30.3341387
8.148                0.981032282     -30.3842247
8.15                 0.980950037     -30.4343023
8.152                0.980867726     -30.4843716
8.154                0.980887003     -30.5368235
8.156                0.980906928     -30.5892551
8.158                0.980927479     -30.6416655
8.16                 0.980948658     -30.6940545
8.162                0.981013406     -30.7529512
8.164                0.981078903     -30.8118201
8.166                0.981145151     -30.8706609
8.168                0.981212151     -30.9294736
8.17                 0.981232035     -30.9950217
8.172                0.981252285     -31.0605388
8.174                0.981272904     -31.1260244
8.176                0.981293873      -31.191479
8.178                0.981206009     -31.2596706
8.18                 0.981117947     -31.3278359
8.182                0.981029684     -31.3959749
8.184                0.980941218     -31.4640874
8.186                0.980757177     -31.5294242
8.188                0.980572433     -31.5947484
8.19                 0.980386984       -31.66006
8.192                0.980200826     -31.7253588
8.194                0.980001659     -31.7847894
8.196                 0.97980172     -31.8442146
8.198                 0.97960101     -31.9036355
8.2                  0.979399535     -31.9630517