! TOUCHSTONE file generated by CST DESIGN STUDIO
! Date and time: Mon Feb 10 16:50:46 2025
! Project name: C:\Work\MatlabApps\UnitCellType2OptimizationMatlab\CST\unitcell.cst
! Tree item: Tasks\Sweep1\SPara1\S-Parameters
! Header version: 2024
! Port assignment regex: !\s*Touchstone port\s*([0-9]+)\s*=\s*(CST MWS port|CST DES external port|CST DES block port)\s*(.+)\s* \(\"(.*)\"\)(\s*mode\s*([0-9]+))?.*
! Touchstone port assignment:
! Touchstone port 1 = CST DES external port 1 ("")
# GHz S MA R 50
7                    0.994853248     -13.5412909
7.002                0.994847009     -13.5607801
7.004                0.994840744     -13.5802963
7.006                0.994834453     -13.5998397
7.008                0.994828135     -13.6194102
7.01                  0.99482179      -13.639008
7.012                0.994815419     -13.6586332
7.014                0.994809022     -13.6782858
7.016                0.994802597     -13.6979659
7.018                0.994796146     -13.7176736
7.02                 0.994789668     -13.7374089
7.022                0.994783162      -13.757172
7.024                0.994776629     -13.7769629
7.026                0.994770069     -13.7967818
7.028                0.994763482     -13.8166285
7.03                 0.994756867     -13.8365034
7.032                0.994750225     -13.8564064
7.034                0.994743555     -13.8763376
7.036                0.994736857     -13.8962971
7.038                0.994730131     -13.9162849
7.04                 0.994723377     -13.9363013
7.042                0.994716595     -13.9563462
7.044                0.994709785     -13.9764197
7.046                0.994702946     -13.9965219
7.048                0.994696079     -14.0166529
7.05                 0.994689183     -14.0368127
7.052                0.994682259     -14.0570016
7.054                0.994675306     -14.0772194
7.056                0.994668325     -14.0974664
7.058                0.994661314     -14.1177426
7.06                 0.994654274     -14.1380481
7.062                0.994647205     -14.1583829
7.064                0.994640107     -14.1787472
7.066                0.994632979     -14.1991411
7.068                0.994625822     -14.2195645
7.07                 0.994618635     -14.2400177
7.072                0.994611418     -14.2605007
7.074                0.994604172     -14.2810136
7.076                0.994596896     -14.3015565
7.078                0.994589589     -14.3221294
7.08                 0.994582252     -14.3427325
7.082                0.994574886     -14.3633658
7.084                0.994567488     -14.3840294
7.086                 0.99456006     -14.4047235
7.088                0.994552602      -14.425448
7.09                 0.994545112     -14.4462032
7.092                0.994537592      -14.466989
7.094                0.994530041     -14.4878056
7.096                0.994522459      -14.508653
7.098                0.994514845     -14.5295314
7.1                    0.9945072     -14.5504409
7.102                0.994499524     -14.5713815
7.104                0.994491815     -14.5923533
7.106                0.994484076     -14.6133564
7.108                0.994476304      -14.634391
7.11                   0.9944685      -14.655457
7.112                0.994460665     -14.6765547
7.114                0.994452797      -14.697684
7.116                0.994444897     -14.7188451
7.118                0.994436964     -14.7400381
7.12                 0.994428998     -14.7612631
7.122                   0.994421     -14.7825202
7.124                0.994412969     -14.8038094
7.126                0.994404905     -14.8251308
7.128                0.994396808     -14.8464846
7.13                 0.994388678     -14.8678709
7.132                0.994380515     -14.8892897
7.134                0.994372317     -14.9107412
7.136                0.994364087     -14.9322254
7.138                0.994355822     -14.9537424
7.14                 0.994347524     -14.9752924
7.142                0.994339191     -14.9968754
7.144                0.994330824     -15.0184916
7.146                0.994322423     -15.0401409
7.148                0.994313988     -15.0618237
7.15                 0.994305518     -15.0835398
7.152                0.994297013     -15.1052895
7.154                0.994288474     -15.1270729
7.156                0.994279899     -15.1488899
7.158                 0.99427129     -15.1707409
7.16                 0.994262645     -15.1926257
7.162                0.994253964     -15.2145446
7.164                0.994245248     -15.2364977
7.166                0.994236497      -15.258485
7.168                0.994227709     -15.2805066
7.17                 0.994218886     -15.3025627
7.172                0.994210026     -15.3246534
7.174                 0.99420113     -15.3467788
7.176                0.994192198     -15.3689389
7.178                0.994183229     -15.3911339
7.18                 0.994174224     -15.4133639
7.182                0.994165182      -15.435629
7.184                0.994156102     -15.4579293
7.186                0.994146986     -15.4802649
7.188                0.994137832      -15.502636
7.19                  0.99412864     -15.5250425
7.192                0.994119411     -15.5474847
7.194                0.994110145     -15.5699627
7.196                 0.99410084     -15.5924764
7.198                0.994091497     -15.6150262
7.2                  0.994082116      -15.637612
7.202                0.994072697     -15.6602341
7.204                0.994063239     -15.6828924
7.206                0.994053742     -15.7055871
7.208                0.994044207     -15.7283184
7.21                 0.994034632     -15.7510863
7.212                0.994025019     -15.7738909
7.214                0.994015366     -15.7967324
7.216                0.994005673     -15.8196109
7.218                0.993995941     -15.8425265
7.22                 0.993986169     -15.8654793
7.222                0.993976357     -15.8884694
7.224                0.993966504     -15.9114969
7.226                0.993956612      -15.934562
7.228                0.993946679     -15.9576648
7.23                 0.993936705     -15.9808054
7.232                 0.99392669     -16.0039839
7.234                0.993916635     -16.0272004
7.236                0.993906538     -16.0504551
7.238                  0.9938964      -16.073748
7.24                  0.99388622     -16.0970794
7.242                0.993875998     -16.1204492
7.244                0.993865735     -16.1438577
7.246                 0.99385543     -16.1673049
7.248                0.993845082      -16.190791
7.25                 0.993834692     -16.2143161
7.252                 0.99382426     -16.2378803
7.254                0.993813784     -16.2614838
7.256                0.993803266     -16.2851266
7.258                0.993792704      -16.308809
7.26                   0.9937821     -16.3325309
7.262                0.993771451     -16.3562926
7.264                0.993760759     -16.3800942
7.266                0.993750023     -16.4039358
7.268                0.993739244     -16.4278174
7.27                 0.993728419     -16.4517394
7.272                0.993717551     -16.4757017
7.274                0.993706637     -16.4997046
7.276                0.993695679     -16.5237481
7.278                0.993684676     -16.5478323
7.28                 0.993673628     -16.5719575
7.282                0.993662534     -16.5961237
7.284                0.993651395      -16.620331
7.286                 0.99364021     -16.6445797
7.288                0.993628979     -16.6688697
7.29                 0.993617702     -16.6932014
7.292                0.993606378     -16.7175747
7.294                0.993595008     -16.7419899
7.296                0.993583591     -16.7664471
7.298                0.993572127     -16.7909463
7.3                  0.993560615     -16.8154878
7.302                0.993549057     -16.8400717
7.304                 0.99353745     -16.8646981
7.306                0.993525796     -16.8893671
7.308                0.993514094     -16.9140789
7.31                 0.993502344     -16.9388337
7.312                0.993490545     -16.9636315
7.314                0.993478698     -16.9884726
7.316                0.993466801      -17.013357
7.318                0.993454856     -17.0382849
7.32                 0.993442861     -17.0632564
7.322                0.993430817     -17.0882717
7.324                0.993418723     -17.1133309
7.326                0.993406579     -17.1384342
7.328                0.993394384     -17.1635817
7.33                  0.99338214     -17.1887736
7.332                0.993369844       -17.21401
7.334                0.993357498      -17.239291
7.336                0.993345101     -17.2646168
7.338                0.993332653     -17.2899876
7.34                 0.993320153     -17.3154034
7.342                0.993307601     -17.3408645
7.344                0.993294997      -17.366371
7.346                0.993282341     -17.3919231
7.348                0.993269632     -17.4175208
7.35                 0.993256871     -17.4431644
7.352                0.993244057      -17.468854
7.354                0.993231189     -17.4945898
7.356                0.993218269     -17.5203718
7.358                0.993205294     -17.5462003
7.36                 0.993192266     -17.5720755
7.362                0.993179183     -17.5979974
7.364                0.993166046     -17.6239662
7.366                0.993152855     -17.6499821
7.368                0.993139608     -17.6760453
7.37                 0.993126307     -17.7021559
7.372                 0.99311295      -17.728314
7.374                0.993099537     -17.7545199
7.376                0.993086069     -17.7807737
7.378                0.993072544     -17.8070755
7.38                 0.993058963     -17.8334255
7.382                0.993045325     -17.8598239
7.384                 0.99303163     -17.8862708
7.386                0.993017879     -17.9127664
7.388                0.993004069     -17.9393109
7.39                 0.992990202     -17.9659044
7.392                0.992976277     -17.9925472
7.394                0.992962294     -18.0192392
7.396                0.992948252     -18.0459809
7.398                0.992934152     -18.0727722
7.4                  0.992919992     -18.0996134
7.402                0.992905773     -18.1265047
7.404                0.992891495     -18.1534461
7.406                0.992877156      -18.180438
7.408                0.992862758     -18.2074804
7.41                 0.992848299     -18.2345736
7.412                0.992833779     -18.2617177
7.414                0.992819198     -18.2889128
7.416                0.992804556     -18.3161592
7.418                0.992789852     -18.3434571
7.42                 0.992775087     -18.3708066
7.422                0.992760259     -18.3982078
7.424                0.992745369     -18.4256611
7.426                0.992730416     -18.4531665
7.428                  0.9927154     -18.4807242
7.43                 0.992700321     -18.5083344
7.432                0.992685178     -18.5359974
7.434                0.992669971     -18.5637132
7.436                  0.9926547     -18.5914821
7.438                0.992639365     -18.6193043
7.44                 0.992623964     -18.6471799
7.442                0.992608498     -18.6751091
7.444                0.992592967     -18.7030921
7.446                 0.99257737     -18.7311292
7.448                0.992561708     -18.7592204
7.45                 0.992545978      -18.787366
7.452                0.992530182     -18.8155662
7.454                0.992514319     -18.8438212
7.456                0.992498388     -18.8721311
7.458                 0.99248239     -18.9004962
7.46                 0.992466324     -18.9289166
7.462                0.992450189     -18.9573926
7.464                0.992433986     -18.9859243
7.466                0.992417714     -19.0145119
7.468                0.992401372     -19.0431557
7.47                 0.992384961     -19.0718558
7.472                0.992368479     -19.1006125
7.474                0.992351928     -19.1294259
7.476                0.992335305     -19.1582963
7.478                0.992318612     -19.1872237
7.48                 0.992301847     -19.2162086
7.482                0.992285011      -19.245251
7.484                0.992268102     -19.2743511
7.486                0.992251121     -19.3035093
7.488                0.992234067     -19.3327256
7.49                  0.99221694     -19.3620003
7.492                 0.99219974     -19.3913335
7.494                0.992182465     -19.4207256
7.496                0.992165117     -19.4501768
7.498                0.992147693     -19.4796871
7.5                  0.992130195     -19.5092569
7.502                0.992112622     -19.5388864
7.504                0.992094973     -19.5685757
7.506                0.992077247     -19.5983251
7.508                0.992059446     -19.6281349
7.51                 0.992041567     -19.6580052
7.512                0.992023611     -19.6879362
7.514                0.992005578     -19.7179282
7.516                0.991987467     -19.7479815
7.518                0.991969277     -19.7780961
7.52                 0.991951009     -19.8082724
7.522                0.991932661     -19.8385106
7.524                0.991914234     -19.8688108
7.526                0.991895727     -19.8991734
7.528                0.991877139     -19.9295986
7.53                 0.991858471     -19.9600865
7.532                0.991839721     -19.9906375
7.534                 0.99182089     -20.0212517
7.536                0.991801977     -20.0519294
7.538                0.991782982     -20.0826709
7.54                 0.991763904     -20.1134763
7.542                0.991744742     -20.1443459
7.544                0.991725497     -20.1752799
7.546                0.991706168     -20.2062786
7.548                0.991686754     -20.2373422
7.55                 0.991667256      -20.268471
7.552                0.991647672     -20.2996651
7.554                0.991628002     -20.3309249
7.556                0.991608246     -20.3622506
7.558                0.991588403     -20.3936425
7.56                 0.991568473     -20.4251007
7.562                0.991548456     -20.4566256
7.564                 0.99152835     -20.4882173
7.566                0.991508156     -20.5198762
7.568                0.991487874     -20.5516025
7.57                 0.991467501     -20.5833964
7.572                0.991447039     -20.6152582
7.574                0.991426487     -20.6471882
7.576                0.991405843     -20.6791865
7.578                0.991385109     -20.7112536
7.58                 0.991364283     -20.7433896
7.582                0.991343364     -20.7755948
7.584                0.991322353     -20.8078694
7.586                0.991301249     -20.8402138
7.588                0.991280051     -20.8726282
7.59                 0.991258759     -20.9051128
7.592                0.991237372      -20.937668
7.594                 0.99121589     -20.9702939
7.596                0.991194313     -21.0029909
7.598                0.991172639     -21.0357593
7.6                  0.991150869     -21.0685993
7.602                0.991129002     -21.1015112
7.604                0.991107037     -21.1344952
7.606                0.991084973     -21.1675517
7.608                0.991062812     -21.2006809
7.61                  0.99104055     -21.2338831
7.612                 0.99101819     -21.2671586
7.614                0.990995729     -21.3005077
7.616                0.990973167     -21.3339307
7.618                0.990950503     -21.3674278
7.62                 0.990927738     -21.4009993
7.622                0.990904871     -21.4346456
7.624                  0.9908819     -21.4683669
7.626                0.990858826     -21.5021635
7.628                0.990835648     -21.5360357
7.63                 0.990812366     -21.5699838
7.632                0.990788978     -21.6040081
7.634                0.990765484     -21.6381089
7.636                0.990741884     -21.6722866
7.638                0.990718177     -21.7065413
7.64                 0.990694363     -21.7408734
7.642                0.990670441     -21.7752833
7.644                 0.99064641     -21.8097711
7.646                 0.99062227     -21.8443373
7.648                 0.99059802     -21.8789822
7.65                 0.990573659      -21.913706
7.652                0.990549188      -21.948509
7.654                0.990524605     -21.9833916
7.656                 0.99049991     -22.0183542
7.658                0.990475102     -22.0533969
7.66                  0.99045018     -22.0885202
7.662                0.990425145     -22.1237244
7.664                0.990399994     -22.1590097
7.666                0.990374729     -22.1943766
7.668                0.990349347     -22.2298253
7.67                 0.990323849     -22.2653561
7.672                0.990298234     -22.3009695
7.674                0.990272501     -22.3366657
7.676                0.990246649      -22.372445
7.678                0.990220678     -22.4083079
7.68                 0.990194587     -22.4442545
7.682                0.990168376     -22.4802854
7.684                0.990142043     -22.5164008
7.686                0.990115589      -22.552601
7.688                0.990089012     -22.5888865
7.69                 0.990062312     -22.6252575
7.692                0.990035488     -22.6617144
7.694                0.990008539     -22.6982576
7.696                0.989981465     -22.7348874
7.698                0.989954266     -22.7716041
7.7                  0.989926939     -22.8084082
7.702                0.989899485        -22.8453
7.704                0.989871903     -22.8822797
7.706                0.989844192     -22.9193479
7.708                0.989816351     -22.9565049
7.71                 0.989788381      -22.993751
7.712                0.989760279     -23.0310866
7.714                0.989732045      -23.068512
7.716                0.989703679     -23.1060277
7.718                0.989675179     -23.1436341
7.72                 0.989646546     -23.1813314
7.722                0.989617778     -23.2191201
7.724                0.989588874     -23.2570006
7.726                0.989559833     -23.2949732
7.728                0.989530656     -23.3330383
7.73                 0.989501341     -23.3711963
7.732                0.989471887     -23.4094476
7.734                0.989442293     -23.4477927
7.736                0.989412559     -23.4862318
7.738                0.989382685     -23.5247654
7.74                 0.989352668     -23.5633939
7.742                0.989322508     -23.6021176
7.744                0.989292205     -23.6409371
7.746                0.989261758     -23.6798526
7.748                0.989231165     -23.7188646
7.75                 0.989200426     -23.7579735
7.752                 0.98916954     -23.7971798
7.754                0.989138507     -23.8364838
7.756                0.989107325     -23.8758859
7.758                0.989075993     -23.9153866
7.76                 0.989044511     -23.9549863
7.762                0.989012878     -23.9946854
7.764                0.988981092     -24.0344843
7.766                0.988949154     -24.0743835
7.768                0.988917061     -24.1143834
7.77                 0.988884814     -24.1544844
7.772                0.988852411      -24.194687
7.774                0.988819852     -24.2349916
7.776                0.988787135     -24.2753986
7.778                0.988754259     -24.3159085
7.78                 0.988721224     -24.3565218
7.782                0.988688028     -24.3972388
7.784                0.988654671     -24.4380601
7.786                0.988621152      -24.478986
7.788                0.988587469     -24.5200171
7.79                 0.988553622     -24.5611538
7.792                 0.98851961     -24.6023966
7.794                0.988485432     -24.6437459
7.796                0.988451087     -24.6852022
7.798                0.988416573     -24.7267659
7.8                   0.98838189     -24.7684376
7.802                0.988347037     -24.8102177
7.804                0.988312013     -24.8521066
7.806                0.988276816      -24.894105
7.808                0.988241446     -24.9362132
7.81                 0.988205901     -24.9784317
7.812                0.988170181     -25.0207611
7.814                0.988134285     -25.0632017
7.816                0.988098211     -25.1057542
7.818                0.988061958      -25.148419
7.82                 0.988025526     -25.1911967
7.822                0.987988913     -25.2340876
7.824                0.987952118     -25.2770924
7.826                0.987915139     -25.3202114
7.828                0.987877977     -25.3634454
7.83                 0.987840629     -25.4067947
7.832                0.987803095     -25.4502598
7.834                0.987765374     -25.4938414
7.836                0.987727463     -25.5375399
7.838                0.987689363     -25.5813559
7.84                 0.987651072     -25.6252898
7.842                0.987612588     -25.6693423
7.844                0.987573911     -25.7135138
7.846                0.987535039     -25.7578049
7.848                0.987495972     -25.8022162
7.85                 0.987456707     -25.8467481
7.852                0.987417244     -25.8914013
7.854                0.987377582     -25.9361763
7.856                0.987337718     -25.9810736
7.858                0.987297653     -26.0260939
7.86                 0.987257385     -26.0712376
7.862                0.987216912     -26.1165054
7.864                0.987176233     -26.1618978
7.866                0.987135347     -26.2074153
7.868                0.987094252     -26.2530587
7.87                 0.987052948     -26.2988284
7.872                0.987011433      -26.344725
7.874                0.986969705     -26.3907492
7.876                0.986927764     -26.4369014
7.878                0.986885607     -26.4831824
7.88                 0.986843234     -26.5295927
7.882                0.986800644     -26.5761329
7.884                0.986757834     -26.6228037
7.886                0.986714803     -26.6696055
7.888                 0.98667155     -26.7165392
7.89                 0.986628074     -26.7636051
7.892                0.986584373     -26.8108041
7.894                0.986540446     -26.8581367
7.896                0.986496291     -26.9056035
7.898                0.986451906     -26.9532052
7.9                  0.986407291     -27.0009425
7.902                0.986362444     -27.0488158
7.904                0.986317363      -27.096826
7.906                0.986272047     -27.1449737
7.908                0.986226494     -27.1932594
7.91                 0.986180703      -27.241684
7.912                0.986134672     -27.2902479
7.914                  0.9860884     -27.3389519
7.916                0.986041885     -27.3877968
7.918                0.985995125      -27.436783
7.92                 0.985948119     -27.4859114
7.922                0.985900865     -27.5351826
7.924                0.985853363     -27.5845972
7.926                0.985805609     -27.6341561
7.928                0.985757602     -27.6838598
7.93                 0.985709341     -27.7337091
7.932                0.985660825     -27.7837048
7.934                 0.98561205     -27.8338474
7.936                0.985563017     -27.8841377
7.938                0.985513722     -27.9345764
7.94                 0.985464164     -27.9851643
7.942                0.985414342     -28.0359021
7.944                0.985364254     -28.0867905
7.946                0.985313898     -28.1378303
7.948                0.985263271     -28.1890222
7.95                 0.985212373     -28.2403669
7.952                0.985161202     -28.2918652
7.954                0.985109756     -28.3435179
7.956                0.985058032     -28.3953257
7.958                0.985006029     -28.4472894
7.96                 0.984953746     -28.4994097
7.962                0.984901179     -28.5516875
7.964                0.984848328     -28.6041234
7.966                0.984795191     -28.6567184
7.968                0.984741765     -28.7094732
7.97                 0.984688048     -28.7623886
7.972                0.984634039     -28.8154654
7.974                0.984579736     -28.8687044
7.976                0.984525136     -28.9221065
7.978                0.984470238     -28.9756723
7.98                  0.98441504     -29.0294029
7.982                0.984359539     -29.0832989
7.984                0.984303733     -29.1373612
7.986                0.984247621     -29.1915908
7.988                  0.9841912     -29.2459883
7.99                 0.984134468     -29.3005548
7.992                0.984077423     -29.3552909
7.994                0.984020063     -29.4101977
7.996                0.983962385     -29.4652759
7.998                0.983904388     -29.5205265
8                     0.98384607     -29.5759503
8.002                0.983787427     -29.6315482
8.004                0.983728458     -29.6873211
8.006                0.983669161     -29.7432699
8.008                0.983609532     -29.7993955
8.01                 0.983549571     -29.8556988
8.012                0.983489275     -29.9121808
8.014                 0.98342864     -29.9688423
8.016                0.983367666     -30.0256843
8.018                0.983306349     -30.0827078
8.02                 0.983244687     -30.1399136
8.022                0.983182678     -30.1973028
8.024                0.983120319     -30.2548762
8.026                0.983057608     -30.3126349
8.028                0.982994542     -30.3705798
8.03                  0.98293112     -30.4287118
8.032                0.982867337     -30.4870321
8.034                0.982803192     -30.5455415
8.036                0.982738682      -30.604241
8.038                0.982673805     -30.6631318
8.04                 0.982608557     -30.7222146
8.042                0.982542937     -30.7814907
8.044                0.982476942      -30.840961
8.046                0.982410569     -30.9006265
8.048                0.982343814     -30.9604883
8.05                 0.982276677     -31.0205475
8.052                0.982209153      -31.080805
8.054                 0.98214124      -31.141262
8.056                0.982072935     -31.2019195
8.058                0.982004236     -31.2627785
8.06                 0.981935139     -31.3238403
8.062                0.981865641     -31.3851057
8.064                0.981795741     -31.4465761
8.066                0.981725434     -31.5082524
8.068                0.981654718     -31.5701358
8.07                  0.98158359     -31.6322274
8.072                0.981512047     -31.6945284
8.074                0.981440085     -31.7570398
8.076                0.981367703     -31.8197628
8.078                0.981294896     -31.8826986
8.08                 0.981221661     -31.9458483
8.082                0.981147996     -32.0092132
8.084                0.981073898     -32.0727943
8.086                0.980999362     -32.1365929
8.088                0.980924386     -32.2006102
8.09                 0.980848967     -32.2648474
8.092                0.980773101     -32.3293056
8.094                0.980696785     -32.3939862
8.096                0.980620016     -32.4588903
8.098                 0.98054279     -32.5240192
8.1                  0.980465104     -32.5893741
8.102                0.980386954     -32.6549564
8.104                0.980308338     -32.7207672
8.106                 0.98022925     -32.7868078
8.108                0.980149689     -32.8530796
8.11                 0.980069651     -32.9195837
8.112                0.979989131     -32.9863217
8.114                0.979908126     -33.0532946
8.116                0.979826633      -33.120504
8.118                0.979744648      -33.187951
8.12                 0.979662167     -33.2556371
8.122                0.979579186     -33.3235636
8.124                0.979495702     -33.3917319
8.126                0.979411711     -33.4601433
8.128                0.979327208     -33.5287992
8.13                 0.979242191     -33.5977011
8.132                0.979156655     -33.6668503
8.134                0.979070596     -33.7362483
8.136                 0.97898401     -33.8058964
8.138                0.978896893     -33.8757961
8.14                 0.978809242     -33.9459489
8.142                0.978721051     -34.0163562
8.144                0.978632317     -34.0870195
8.146                0.978543036     -34.1579403
8.148                0.978453203     -34.2291201
8.15                 0.978362814     -34.3005603
8.152                0.978271865     -34.3722625
8.154                0.978180351     -34.4442282
8.156                0.978088269      -34.516459
8.158                0.977995613     -34.5889563
8.16                  0.97790238     -34.6617219
8.162                0.977808564     -34.7347571
8.164                0.977714161     -34.8080637
8.166                0.977619167     -34.8816432
8.168                0.977523576     -34.9554973
8.17                 0.977427385     -35.0296275
8.172                0.977330589     -35.1040355
8.174                0.977233182     -35.1787229
8.176                 0.97713516     -35.2536914
8.178                0.977036518     -35.3289428
8.18                 0.976937252     -35.4044785
8.182                0.976837355     -35.4803005
8.184                0.976736824     -35.5564103
8.186                0.976635653     -35.6328097
8.188                0.976533838     -35.7095005
8.19                 0.976431372     -35.7864843
8.192                0.976328251     -35.8637631
8.194                0.976224469     -35.9413384
8.196                0.976120022     -36.0192122
8.198                0.976014904     -36.0973863
8.2                  0.975909109     -36.1758624