! TOUCHSTONE file generated by CST DESIGN STUDIO
! Date and time: Mon Feb 10 16:50:56 2025
! Project name: C:\Work\MatlabApps\UnitCellType2OptimizationMatlab\CST\unitcell.cst
! Tree item: Tasks\Sweep1\SPara1\S-Parameters
! Header version: 2024
! Port assignment regex: !\s*Touchstone port\s*([0-9]+)\s*=\s*(CST MWS port|CST DES external port|CST DES block port)\s*(.+)\s* \(\"(.*)\"\)(\s*mode\s*([0-9]+))?.*
! Touchstone port assignment:
! Touchstone port 1 = CST DES external port 1 ("")
# GHz S MA R 50
7                     0.98785625     -8.19703713
7.002                0.987792449      -8.2175025
7.004                0.987729146     -8.23792731
7.006                0.987666332     -8.25831201
7.008                0.987604005      -8.2786569
7.01                 0.987586598     -8.29597057
7.012                0.987570723     -8.31324972
7.014                0.987556373     -8.33049429
7.016                0.987543549     -8.34770425
7.018                0.987597933     -8.36502699
7.02                 0.987653428     -8.38234578
7.022                0.987710032     -8.39966075
7.024                0.987767748     -8.41697199
7.026                0.987869861     -8.43751642
7.028                0.987971122      -8.4580841
7.03                 0.988071527     -8.47867461
7.032                0.988171077     -8.49928777
7.034                0.988257592     -8.52399522
7.036                0.988342315     -8.54869246
7.038                0.988425255     -8.57337902
7.04                 0.988506423     -8.59805463
7.042                0.988525356     -8.62454396
7.044                0.988543279     -8.65097728
7.046                0.988560207     -8.67735488
7.048                0.988576146     -8.70367692
7.05                 0.988531848     -8.72825631
7.052                0.988487213     -8.75278641
7.054                0.988442249     -8.77726783
7.056                0.988396961     -8.80170122
7.058                0.988338229     -8.82246558
7.06                 0.988279659     -8.84319802
7.062                0.988221252     -8.86389942
7.064                0.988163004     -8.88457021
7.066                0.988141768     -8.90239669
7.068                0.988121699      -8.9201926
7.07                  0.98810279      -8.9379581
7.072                0.988085034      -8.9556932
7.074                 0.98812632     -8.97329762
7.076                0.988168857     -8.99089234
7.078                0.988212645     -9.00847745
7.08                 0.988257686     -9.02605311
7.082                0.988344348     -9.04631668
7.084                0.988430678     -9.06659893
7.086                0.988516675     -9.08689982
7.088                0.988602339     -9.10721966
7.09                 0.988680854     -9.13120833
7.092                0.988757867     -9.15519607
7.094                0.988833386     -9.17918264
7.096                0.988907417     -9.20316777
7.098                0.988928614     -9.22903775
7.1                  0.988948802     -9.25486588
7.102                0.988967997     -9.28065209
7.104                0.988986208     -9.30639653
7.106                0.988948449     -9.33084812
7.108                0.988910314     -9.35525891
7.11                 0.988871811     -9.37962938
7.112                0.988832948     -9.40395995
7.114                0.988777916     -9.42504287
7.116                0.988722817     -9.44610195
7.118                0.988667653     -9.46713761
7.12                 0.988612427     -9.48815009
7.122                0.988588069     -9.50646105
7.124                0.988564515      -9.5247466
7.126                0.988541761      -9.5430068
7.128                0.988519809     -9.56124165
7.13                 0.988550883     -9.57915538
7.132                0.988583223     -9.59705549
7.134                0.988616829     -9.61494199
7.136                  0.9886517     -9.63281493
7.138                0.988726035     -9.65296155
7.14                 0.988800479     -9.67312227
7.142                0.988875029     -9.69329695
7.144                0.988949685     -9.71348564
7.146                0.989021538     -9.73701531
7.148                0.989092195     -9.76055055
7.15                 0.989161659     -9.78409108
7.152                0.989229932     -9.80763678
7.154                0.989252783     -9.83311758
7.156                0.989274642     -9.85856747
7.158                0.989295517     -9.88398651
7.16                 0.989315411     -9.90937468
7.162                0.989282683     -9.93383606
7.164                0.989249564     -9.95826317
7.166                 0.98921606      -9.9826563
7.168                0.989182177     -10.0070157
7.17                 0.989129664     -10.0284739
7.172                0.989076938     -10.0499141
7.174                0.989024003      -10.071337
7.176                0.988970862     -10.0927429
7.178                0.988943565     -10.1115432
7.18                 0.988916741     -10.1303234
7.182                0.988890384     -10.1490839
7.184                0.988864493     -10.1678247
7.186                0.988887218     -10.1860799
7.188                0.988911124     -10.2043192
7.19                  0.98893621     -10.2225425
7.192                0.988962477       -10.24075
7.194                0.989026781     -10.2609045
7.196                0.989091542      -10.281068
7.198                0.989156759     -10.3012404
7.2                  0.989222433     -10.3214222
7.202                0.989288787     -10.3446859
7.204                0.989354264     -10.3679591
7.206                0.989418865     -10.3912417
7.208                0.989482591     -10.4145337
7.21                 0.989506835     -10.4398141
7.212                0.989530109     -10.4650729
7.214                0.989552423     -10.4903101
7.216                0.989573783     -10.5155254
7.218                 0.98954517     -10.5401296
7.22                  0.98951615     -10.5647043
7.222                 0.98948673     -10.5892499
7.224                0.989456916     -10.6137664
7.226                0.989406056      -10.635665
7.228                0.989354905     -10.6575505
7.23                 0.989303468     -10.6794233
7.232                0.989251749     -10.7012834
7.234                0.989221531     -10.7206023
7.236                0.989191492     -10.7399071
7.238                0.989161631     -10.7591979
7.24                 0.989131953     -10.7784747
7.242                0.989147643     -10.7971066
7.244                0.989164349     -10.8157219
7.246                0.989182072     -10.8343206
7.248                0.989200811     -10.8529025
7.25                 0.989256942      -10.873168
7.252                0.989313793     -10.8934374
7.254                0.989371362     -10.9137109
7.256                 0.98942965     -10.9339885
7.258                0.989491587     -10.9571537
7.26                 0.989552976     -10.9803306
7.262                0.989613816     -11.0035192
7.264                0.989674107     -11.0267194
7.266                0.989699656     -11.0519712
7.268                 0.98972429      -11.077209
7.27                 0.989748014     -11.1024327
7.272                0.989770828     -11.1276423
7.274                0.989745647     -11.1525185
7.276                0.989720044     -11.1773691
7.278                0.989694023     -11.2021943
7.28                 0.989667587     -11.2269942
7.282                0.989617535     -11.2494189
7.284                0.989567159     -11.2718333
7.286                0.989516466     -11.2942381
7.288                0.989465459     -11.3166333
7.29                 0.989431944     -11.3365101
7.292                 0.98939837     -11.3563781
7.294                0.989364734     -11.3762378
7.296                0.989331038     -11.3960892
7.298                 0.98934032     -11.4151338
7.3                  0.989350401     -11.4341626
7.302                0.989361279     -11.4531754
7.304                0.989372955     -11.4721723
7.306                0.989422307     -11.4926176
7.308                0.989472546      -11.513062
7.31                 0.989523672     -11.5335057
7.312                0.989575686     -11.5539489
7.314                0.989634282     -11.5771372
7.316                0.989692659     -11.6003376
7.318                0.989750817     -11.6235502
7.32                 0.989808756     -11.6467748
7.322                0.989836063     -11.6721365
7.324                 0.98986254     -11.6974909
7.326                0.989888191     -11.7228377
7.328                 0.98991302     -11.7481769
7.33                 0.989891254     -11.7734565
7.332                0.989869042     -11.7987139
7.334                 0.98984639      -11.823949
7.336                0.989823299     -11.8491618
7.338                0.989773764     -11.8722185
7.34                 0.989723908      -11.895267
7.342                0.989673736     -11.9183075
7.344                0.989623251     -11.9413398
7.346                0.989586104     -11.9618584
7.348                 0.98954871     -11.9823735
7.35                 0.989511072     -12.0028854
7.352                 0.98947319     -12.0233942
7.354                0.989476289      -12.042914
7.356                0.989479938     -12.0624198
7.358                 0.98948413     -12.0819117
7.36                 0.989488864     -12.1013899
7.362                0.989532124     -12.1220964
7.364                0.989576349      -12.142798
7.366                0.989621539     -12.1634945
7.368                0.989667694     -12.1841861
7.37                 0.989723543     -12.2075116
7.372                0.989779491     -12.2308483
7.374                0.989835537     -12.2541961
7.376                 0.98989168     -12.2775551
7.378                0.989920834     -12.3031498
7.38                 0.989949286     -12.3287424
7.382                0.989977039     -12.3543329
7.384                0.990004089     -12.3799212
7.386                0.989985581     -12.4057171
7.388                0.989966607     -12.4314936
7.39                 0.989947169     -12.4572506
7.392                0.989927269     -12.4829884
7.394                0.989877825     -12.5067861
7.396                0.989828077     -12.5305759
7.398                0.989778031     -12.5543582
7.4                  0.989727689     -12.5781329
7.402                0.989686368     -12.5993777
7.404                 0.98964467     -12.6206233
7.406                0.989602598     -12.6418701
7.408                0.989560155     -12.6631182
7.41                 0.989556891     -12.6831711
7.412                0.989553899     -12.7032135
7.414                 0.98955118     -12.7232452
7.416                0.989548735     -12.7432665
7.418                0.989586259     -12.7642898
7.42                 0.989624732     -12.7853047
7.422                0.989664158     -12.8063111
7.424                0.989704538     -12.8273092
7.426                0.989758125     -12.8508435
7.428                0.989812101     -12.8743866
7.43                 0.989866466     -12.8979385
7.432                 0.98992122     -12.9214992
7.434                0.989952646     -12.9474158
7.436                 0.98998354     -12.9733348
7.438                0.990013903     -12.9992561
7.44                 0.990043737     -13.0251795
7.442                0.990028895     -13.0515911
7.444                0.990013571     -13.0779862
7.446                0.989997768     -13.1043648
7.448                0.989981488     -13.1307269
7.45                  0.98993232     -13.1553724
7.452                0.989882878     -13.1800099
7.454                0.989833162     -13.2046393
7.456                0.989783176     -13.2292606
7.458                 0.98973756     -13.2513307
7.46                 0.989691489     -13.2734054
7.462                0.989644967     -13.2954846
7.464                0.989597996     -13.3175684
7.466                0.989588227     -13.3382373
7.468                0.989578464     -13.3588995
7.47                 0.989568703     -13.3795553
7.472                0.989558944     -13.4002047
7.474                0.989591032     -13.4216159
7.476                0.989623977     -13.4430163
7.478                 0.98965778     -13.4644058
7.48                  0.98969244     -13.4857845
7.482                0.989744324     -13.5096117
7.484                0.989796847     -13.5334445
7.486                0.989850007     -13.5572828
7.488                0.989903805     -13.5811268
7.49                  0.98993804     -13.6074635
7.492                0.989971959     -13.6338055
7.494                0.990005562     -13.6601529
7.496                0.990038846     -13.6865057
7.498                0.990028201     -13.7136486
7.5                   0.99001708      -13.740778
7.502                0.990005485     -13.7678938
7.504                0.989993416     -13.7949961
7.506                0.989944836     -13.8206283
7.508                0.989896004     -13.8462511
7.51                 0.989846923     -13.8718646
7.512                0.989797595     -13.8974689
7.514                0.989747277     -13.9205111
7.516                0.989696472     -13.9435598
7.518                0.989645184     -13.9666153
7.52                 0.989593416     -13.9896775
7.522                0.989576394     -14.0110791
7.524                0.989559116      -14.032479
7.526                0.989541586     -14.0538772
7.528                0.989523805      -14.075274
7.53                 0.989549814     -14.0971571
7.532                0.989576506     -14.1190282
7.534                0.989603878     -14.1408875
7.536                0.989631936      -14.162735
7.538                0.989681742     -14.1869207
7.54                 0.989732377     -14.2111078
7.542                 0.98978384     -14.2352963
7.544                0.989836133     -14.2594863
7.546                0.989873057     -14.2863073
7.548                0.989909915     -14.3131357
7.55                 0.989946709     -14.3399713
7.552                0.989983437     -14.3668141
7.554                0.989977235     -14.3947653
7.556                0.989970589     -14.4227062
7.558                0.989963501     -14.4506365
7.56                 0.989955972     -14.4785564
7.562                0.989908331     -14.5052753
7.564                0.989860464     -14.5319831
7.566                0.989812373     -14.5586799
7.568                0.989764058     -14.5853656
7.57                 0.989709007     -14.6094927
7.572                0.989653481     -14.6336274
7.574                0.989597482     -14.6577695
7.576                0.989541013     -14.6819192
7.578                0.989516271     -14.7041535
7.58                 0.989491047      -14.726391
7.582                0.989465337     -14.7486321
7.584                0.989439143     -14.7708768
7.586                0.989458772     -14.7933038
7.588                 0.98947884     -14.8157193
7.59                 0.989499344     -14.8381231
7.592                0.989520286     -14.8605153
7.594                0.989568098     -14.8851171
7.596                0.989616858     -14.9097158
7.598                0.989666567     -14.9343115
7.6                  0.989717225     -14.9589043
7.602                0.989757294      -14.986272
7.604                0.989797579     -15.0136473
7.606                 0.98983808     -15.0410302
7.608                0.989878793     -15.0684209
7.61                  0.98987796     -15.0972601
7.612                0.989876763     -15.1260919
7.614                0.989875202     -15.1549162
7.616                0.989873277     -15.1837332
7.618                0.989827581     -15.2116668
7.62                 0.989781682     -15.2395873
7.622                0.989735585     -15.2674948
7.624                0.989689289     -15.2953893
7.626                0.989629844     -15.3207705
7.628                0.989569969     -15.3461584
7.63                 0.989509667     -15.3715533
7.632                0.989448941     -15.3969551
7.634                0.989416012     -15.4201793
7.636                0.989382396     -15.4434122
7.638                0.989348096     -15.4666539
7.64                 0.989313117     -15.4899044
7.642                0.989325623     -15.5129914
7.644                0.989338258     -15.5360685
7.646                0.989351021     -15.5591357
7.648                0.989363918     -15.5821935
7.65                 0.989409234     -15.6072928
7.652                0.989455531     -15.6323845
7.654                 0.98950281     -15.6574687
7.656                0.989551072     -15.6825454
7.658                0.989594258      -15.710526
7.66                 0.989637958     -15.7385134
7.662                0.989682172     -15.7665073
7.664                0.989726901     -15.7945078
7.666                0.989731971     -15.8243252
7.668                0.989736809     -15.8541381
7.67                 0.989741417     -15.8839465
7.672                0.989745792     -15.9137504
7.674                0.989702862     -15.9430295
7.676                 0.98965977     -15.9722935
7.678                0.989616516     -16.0015422
7.68                 0.989573098     -16.0307755
7.682                0.989509449     -16.0575832
7.684                 0.98944545     -16.0843956
7.686                0.989381104     -16.1112127
7.688                 0.98931641     -16.1380344
7.69                 0.989274514     -16.1624214
7.692                0.989231773     -16.1868217
7.694                0.989188187     -16.2112358
7.696                0.989143758     -16.2356635
7.698                 0.98914785     -16.2595397
7.7                  0.989151703     -16.2834093
7.702                0.989155315     -16.3072724
7.704                0.989158688     -16.3311291
7.706                0.989200418        -16.3568
7.708                0.989243058      -16.382459
7.71                 0.989286608     -16.4081063
7.712                0.989331071     -16.4337419
7.714                0.989376871     -16.4623769
7.716                0.989423485     -16.4910158
7.718                0.989470913     -16.5196588
7.72                 0.989519154      -16.548306
7.722                0.989530551     -16.5791404
7.724                0.989541919     -16.6099728
7.726                0.989553256     -16.6408032
7.728                0.989564563     -16.6716317
7.73                 0.989525517     -16.7023508
7.732                0.989486366     -16.7330524
7.734                0.989447111     -16.7637363
7.736                0.989407754     -16.7944026
7.738                0.989340789     -16.8227936
7.74                 0.989273593     -16.8511852
7.742                0.989206166     -16.8795773
7.744                 0.98913851     -16.9079699
7.746                0.989087599     -16.9336971
7.748                0.989035724     -16.9594423
7.75                 0.988982886     -16.9852056
7.752                0.988929094     -17.0109868
7.754                0.988924152     -17.0357965
7.756                0.988918536     -17.0606048
7.758                0.988912247     -17.0854116
7.76                 0.988905285     -17.1102171
7.762                0.988942851     -17.1365606
7.764                0.988981134     -17.1628887
7.766                0.989020129     -17.1892013
7.768                0.989059839     -17.2154984
7.77                 0.989108148     -17.2448644
7.772                 0.98915756     -17.2742303
7.774                0.989208076     -17.3035961
7.776                0.989259699     -17.3329617
7.778                0.989278062     -17.3649003
7.78                 0.989296681     -17.3968388
7.782                0.989315558     -17.4287773
7.784                0.989334688     -17.4607157
7.786                0.989300806     -17.4930154
7.788                0.989266928     -17.5252948
7.79                 0.989233053     -17.5575538
7.792                0.989199176     -17.5897922
7.794                 0.98912972     -17.6199784
7.796                0.989060206     -17.6501585
7.798                0.988990634     -17.6803326
7.8                  0.988921003     -17.7105006
7.802                0.988860634     -17.7378083
7.804                0.988799237     -17.7651372
7.806                0.988736813     -17.7924877
7.808                0.988673365     -17.8198595
7.81                 0.988657911      -17.845803
7.812                0.988641263     -17.8717522
7.814                0.988623422      -17.897707
7.816                0.988604388     -17.9236674
7.818                0.988636147     -17.9508079
7.82                 0.988668245       -17.97793
7.822                0.988700684     -18.0050336
7.824                0.988733467     -18.0321192
7.826                0.988783039     -18.0622847
7.828                0.988833971     -18.0924441
7.83                 0.988886264     -18.1225974
7.832                0.988939921     -18.1527448
7.834                0.988965005     -18.1858379
7.836                0.988990748      -18.218932
7.838                 0.98901715     -18.2520272
7.84                 0.989044212     -18.2851236
7.842                0.989016305     -18.3190998
7.844                0.988988582     -18.3530522
7.846                0.988961047     -18.3869805
7.848                0.988933698     -18.4208849
7.85                 0.988862491     -18.4530461
7.852                0.988791494     -18.4851905
7.854                0.988720709     -18.5173181
7.856                0.988650132     -18.5494288
7.858                0.988579949     -18.5785302
7.86                 0.988508745     -18.6076551
7.862                0.988436522     -18.6368034
7.864                0.988363285      -18.665975
7.866                0.988336193     -18.6932228
7.868                0.988307234     -18.7204865
7.87                  0.98827641     -18.7477659
7.872                0.988243722     -18.7750605
7.874                0.988268351     -18.8031014
7.876                0.988292677     -18.8311219
7.878                0.988316696     -18.8591222
7.88                 0.988340409     -18.8871022
7.882                0.988390542      -18.918101
7.884                0.988442244     -18.9490853
7.886                0.988495518     -18.9800549
7.888                0.988550367     -19.0110099
7.89                 0.988582721     -19.0452884
7.892                0.988616338     -19.0795683
7.894                0.988651222     -19.1138497
7.896                0.988687372     -19.1481324
7.898                0.988667404     -19.1838752
7.9                   0.98864797     -19.2195886
7.902                0.988629067     -19.2552727
7.904                0.988610687     -19.2909272
7.906                0.988539813     -19.3252735
7.908                0.988469641     -19.3595835
7.91                 0.988400169     -19.3938571
7.912                0.988331392     -19.4280939
7.914                0.988252341     -19.4592705
7.916                0.988172427     -19.4904693
7.918                0.988091652     -19.5216904
7.92                 0.988010017     -19.5529338
7.922                0.987971118     -19.5817544
7.924                0.987929339     -19.6106075
7.926                0.987884679     -19.6394924
7.928                 0.98783714     -19.6684079
7.93                 0.987854008     -19.6975405
7.932                0.987869333     -19.7266522
7.934                0.987883117     -19.7557428
7.936                0.987895364     -19.7848125
7.938                  0.9879451     -19.8167687
7.94                 0.987996537     -19.8486955
7.942                0.988049683     -19.8805931
7.944                0.988104541     -19.9124623
7.946                0.988143845     -19.9480064
7.948                0.988185565     -19.9835516
7.95                  0.98822971     -20.0190971
7.952                0.988276285     -20.0546423
7.954                0.988265609     -20.0923138
7.956                0.988256208     -20.1299457
7.958                0.988248078     -20.1675374
7.96                 0.988241209     -20.2050888
7.962                 0.98817147     -20.2419357
7.964                0.988103591     -20.2786956
7.966                0.988037554     -20.3153669
7.968                0.987973339     -20.3519478
7.97                  0.98788446     -20.3855553
7.972                0.987795437     -20.4191694
7.974                 0.98770627     -20.4527902
7.976                0.987616963     -20.4864174
7.978                0.987565491      -20.517044
7.98                 0.987508987     -20.5477424
7.982                0.987447442      -20.578509
7.984                0.987380847     -20.6093399
7.986                0.987389784     -20.6396374
7.988                0.987393991     -20.6699172
7.99                 0.987393467     -20.7001765
7.992                0.987388222     -20.7304127
7.994                0.987436718     -20.7632458
7.996                0.987487358     -20.7960029
7.998                0.987540164     -20.8286873
8                    0.987595159     -20.8613025
8.002                0.987639244     -20.8979578
8.004                0.987691872      -20.934609
8.006                0.987753071     -20.9712468
8.008                0.987822868     -21.0078617
8.01                 0.987828754     -21.0476271
8.012                0.987839795     -21.0872689
8.014                0.987855855     -21.1267826
8.016                0.987876784      -21.166165
8.018                0.987817479     -21.2075571
8.02                 0.987767112     -21.2478215
8.022                0.987722886     -21.2869615
8.024                0.987682139     -21.3249977
8.026                0.987554671     -21.3649448
8.028                0.987458888     -21.4032585
8.03                 0.987389392     -21.4396839
8.032                0.987340293     -21.4740127
8.034                0.987279219     -21.5061996
8.036                0.987209251     -21.5397813
8.038                0.987132304     -21.5748077
8.04                 0.987050356     -21.6113222
8.042                0.987080528      -21.642093
8.044                0.987077338     -21.6746849
8.046                0.987037196     -21.7089143
8.048                0.986956842     -21.7445821
8.05                 0.987040262     -21.7784853
8.052                0.987084893     -21.8133565
8.054                0.987088201     -21.8489084
8.056                0.987048298     -21.8848409
8.058                 0.98712006     -21.9225996
8.06                  0.98716539     -21.9609012
8.062                0.987182941     -21.9995819
8.064                0.987171636     -22.0384711
8.066                 0.98718629      -22.079116
8.068                0.987186702     -22.1200518
8.07                 0.987172391     -22.1612177
8.072                0.987142937     -22.2025518
8.074                0.987091473     -22.2433177
8.076                0.987031377     -22.2842592
8.078                0.986962527      -22.325356
8.08                 0.986884811     -22.3665878
8.082                 0.98679349     -22.4049548
8.084                0.986697998     -22.4433548
8.086                0.986598333     -22.4817867
8.088                0.986494491     -22.5202493
8.09                 0.986410185     -22.5556478
8.092                 0.98632927     -22.5909828
8.094                0.986251726     -22.6262517
8.096                0.986177545     -22.6614513
8.098                0.986145748     -22.6956995
8.1                  0.986121335     -22.7299213
8.102                0.986104312     -22.7641061
8.104                0.986094679     -22.7982431
8.106                 0.98612727     -22.8344532
8.108                0.986162874      -22.870673
8.11                 0.986201507      -22.906901
8.112                0.986243188     -22.9431359
8.114                0.986298831     -22.9834662
8.116                   0.986353      -23.023777
8.118                0.986405682     -23.0640666
8.12                 0.986456862     -23.1043345
8.122                0.986475786     -23.1482016
8.124                0.986491842      -23.192075
8.126                0.986505006     -23.2359516
8.128                0.986515256     -23.2798284
8.13                 0.986466464     -23.3243757
8.132                0.986414111     -23.3689823
8.134                0.986358174     -23.4136444
8.136                0.986298618      -23.458358
8.138                0.986198627     -23.5004734
8.14                 0.986095759     -23.5426217
8.142                0.985990009     -23.5848018
8.144                0.985881371     -23.6270125
8.146                0.985781358     -23.6655215
8.148                0.985682073     -23.7040034
8.15                 0.985583513     -23.7424582
8.152                0.985485675     -23.7808856
8.154                0.985437737     -23.8174252
8.156                0.985393908     -23.8539391
8.158                0.985354179     -23.8904242
8.16                 0.985318558     -23.9268768
8.162                0.985340183     -23.9648002
8.164                0.985364832     -24.0027209
8.166                0.985392521     -24.0406372
8.168                0.985423262     -24.0785477
8.17                 0.985479868     -24.1206355
8.172                0.985536641     -24.1627013
8.174                0.985593574     -24.2047448
8.176                0.985650662     -24.2467668
8.178                 0.98567988     -24.2931017
8.18                 0.985707739     -24.3394178
8.182                0.985734226     -24.3857139
8.184                0.985759329     -24.4319892
8.186                0.985718782     -24.4798797
8.188                 0.98567584     -24.5277968
8.19                 0.985630484     -24.5757386
8.192                0.985582698     -24.6237035
8.194                0.985479729     -24.6695838
8.196                0.985374129     -24.7154941
8.198                0.985265899     -24.7614336
8.2                   0.98515503     -24.8074009