! TOUCHSTONE file generated by CST DESIGN STUDIO
! Date and time: Mon Feb 10 16:50:58 2025
! Project name: C:\Work\MatlabApps\UnitCellType2OptimizationMatlab\CST\unitcell.cst
! Tree item: Tasks\Sweep1\SPara1\S-Parameters
! Header version: 2024
! Port assignment regex: !\s*Touchstone port\s*([0-9]+)\s*=\s*(CST MWS port|CST DES external port|CST DES block port)\s*(.+)\s* \(\"(.*)\"\)(\s*mode\s*([0-9]+))?.*
! Touchstone port assignment:
! Touchstone port 1 = CST DES external port 1 ("")
# GHz S MA R 50
7                    0.985341226     -6.58558336
7.002                 0.98521622     -6.61211997
7.004                0.985092437     -6.63855074
7.006                0.984969856     -6.66487708
7.008                0.984848457     -6.69109998
7.01                 0.984769813     -6.71018702
7.012                0.984693805     -6.72921773
7.014                0.984620414     -6.74819181
7.016                 0.98454963     -6.76710871
7.018                0.984595474     -6.78340069
7.02                 0.984643042     -6.79968376
7.022                0.984692333     -6.81595792
7.024                0.984743348     -6.83222319
7.026                 0.98490768     -6.85220402
7.028                0.985070852     -6.87221911
7.03                 0.985232854     -6.89226785
7.032                0.985393686     -6.91234996
7.034                0.985579437     -6.93997842
7.036                0.985762275       -6.967605
7.038                0.985942219     -6.99522855
7.04                 0.986119283      -7.0228483
7.042                0.986211177     -7.05601755
7.044                0.986300835     -7.08908916
7.046                0.986388288     -7.12206347
7.048                0.986473559     -7.15494076
7.05                 0.986436788     -7.18724293
7.052                0.986399142      -7.2194181
7.054                0.986360644     -7.25146797
7.056                0.986321312     -7.28339422
7.058                0.986216474     -7.30972732
7.06                 0.986112148     -7.33597111
7.062                0.986008331     -7.36212756
7.064                0.985905017     -7.38819795
7.066                0.985828724     -7.40802358
7.068                0.985754446     -7.42779602
7.07                 0.985682163     -7.44751563
7.072                0.985611858     -7.46718236
7.074                0.985635839     -7.48409933
7.076                0.985661717     -7.50100078
7.078                0.985689487     -7.51788669
7.08                 0.985719152      -7.5347571
7.082                0.985847881      -7.5542162
7.084                0.985976208      -7.5736997
7.086                0.986104133     -7.59320755
7.088                0.986231657     -7.61274028
7.09                 0.986390737     -7.63850516
7.092                0.986547546     -7.66427674
7.094                0.986702094     -7.69005441
7.096                0.986854392     -7.71583759
7.098                0.986943474     -7.74678381
7.1                  0.987030585     -7.77766443
7.102                0.987115753     -7.80847897
7.104                0.987198999     -7.83922751
7.106                0.987177333     -7.87014226
7.108                0.987154728        -7.90096
7.11                 0.987131208     -7.93168178
7.112                 0.98710679     -7.96230862
7.114                0.987018194     -7.98846098
7.116                0.986929625     -8.01454082
7.118                0.986841084     -8.04054927
7.12                 0.986752573     -8.06648712
7.122                0.986679476     -8.08692307
7.124                 0.98660779     -8.10731122
7.126                0.986537503     -8.12765172
7.128                0.986468607     -8.14794443
7.13                 0.986476913     -8.16545209
7.132                0.986487105     -8.18293966
7.134                0.986499178     -8.20040707
7.136                0.986513132     -8.21785421
7.138                0.986614184     -8.23706631
7.14                 0.986715452     -8.25629522
7.142                0.986816927     -8.27554087
7.144                0.986918609      -8.2948033
7.146                0.987055447      -8.3192584
7.148                0.987190577     -8.34372529
7.15                 0.987324006     -8.36820347
7.152                0.987455736     -8.39269269
7.154                0.987540982     -8.42195906
7.156                0.987624491     -8.45118108
7.158                0.987706277     -8.48035868
7.16                  0.98778635     -8.50949185
7.162                  0.9877758     -8.53932575
7.164                0.987764332     -8.56908536
7.166                0.987751959      -8.5987713
7.168                0.987738696      -8.6283842
7.17                 0.987663108      -8.6544239
7.172                0.987587223     -8.68040518
7.174                0.987511053     -8.70632931
7.176                0.987434605     -8.73219716
7.178                0.987364795     -8.75317695
7.18                 0.987295849     -8.77411486
7.182                0.987227758     -8.79501146
7.184                0.987160512     -8.81586704
7.186                0.987157292     -8.83394624
7.188                0.987155811     -8.85200242
7.19                 0.987156062      -8.8700355
7.192                0.987158046     -8.88804545
7.194                0.987237297     -8.90720591
7.196                0.987317224     -8.92637634
7.198                0.987397828     -8.94555684
7.2                  0.987479111     -8.96474789
7.202                0.987597357     -8.98829901
7.204                 0.98771441     -9.01186442
7.206                0.987830275     -9.03544393
7.208                0.987944951     -9.05903732
7.21                 0.988025983     -9.08705269
7.212                0.988105473      -9.1150395
7.214                0.988183436     -9.14299725
7.216                0.988259882     -9.17092581
7.218                0.988257696     -9.19995192
7.22                 0.988254635     -9.22892064
7.222                0.988250711     -9.25783231
7.224                0.988245937     -9.28668725
7.226                0.988180808     -9.31269499
7.228                0.988115208     -9.33865702
7.23                 0.988049145       -9.364574
7.232                0.987982626     -9.39044631
7.234                0.987915903     -9.41194657
7.236                0.987849569      -9.4334123
7.238                0.987783621     -9.45484385
7.24                 0.987718059     -9.47624127
7.242                0.987706232     -9.49488607
7.244                0.987695891     -9.51350658
7.246                0.987687031     -9.53210271
7.248                0.987679647     -9.55067441
7.25                 0.987741625     -9.56993316
7.252                0.987804619     -9.58919587
7.254                0.987868624     -9.60846257
7.256                 0.98793364     -9.62773334
7.258                 0.98803637     -9.65070317
7.26                 0.988138392     -9.67368837
7.262                0.988239705     -9.69668879
7.264                 0.98834031     -9.71970446
7.266                0.988417064     -9.74682654
7.268                0.988492472      -9.7739309
7.27                  0.98856654     -9.80101745
7.272                 0.98863927      -9.8280862
7.274                0.988643361     -9.85654644
7.276                0.988646631      -9.8849617
7.278                0.988649089      -9.9133322
7.28                 0.988650744     -9.94165814
7.282                0.988593888     -9.96773483
7.284                0.988536475     -9.99377555
7.286                0.988478516      -10.019781
7.288                0.988420022     -10.0457516
7.29                  0.98835577     -10.0677711
7.292                0.988291518     -10.0897633
7.294                0.988227267     -10.1117288
7.296                0.988163015     -10.1336681
7.298                0.988144377     -10.1528801
7.3                    0.9881269     -10.1720681
7.302                0.988110582      -10.191232
7.304                0.988095419      -10.210372
7.306                0.988143575     -10.2298291
7.308                0.988192948     -10.2492845
7.31                 0.988243538     -10.2687384
7.312                 0.98829535     -10.2881912
7.314                0.988385248     -10.3108171
7.316                 0.98847489      -10.333458
7.318                0.988564276     -10.3561138
7.32                 0.988653406     -10.3787846
7.322                 0.98872644     -10.4052975
7.324                0.988798328     -10.4318015
7.326                0.988869074     -10.4582963
7.328                0.988938685     -10.4847817
7.33                 0.988947941     -10.5129003
7.332                0.988956424     -10.5409833
7.334                0.988964141     -10.5690306
7.336                0.988971098     -10.5970424
7.338                  0.9889211     -10.6233075
7.34                 0.988870538     -10.6495444
7.342                0.988819419     -10.6757534
7.344                 0.98876775     -10.7019345
7.346                0.988705375     -10.7245237
7.348                0.988642701     -10.7470932
7.35                 0.988579731     -10.7696434
7.352                0.988516467     -10.7921746
7.354                0.988492118     -10.8119866
7.356                0.988468567      -10.831776
7.358                0.988445809     -10.8515434
7.36                 0.988423838     -10.8712887
7.362                0.988460461     -10.8910453
7.364                0.988498388     -10.9107954
7.366                0.988537614     -10.9305391
7.368                0.988578141     -10.9502763
7.37                 0.988657135     -10.9727596
7.372                 0.98873629     -10.9952562
7.374                0.988815606     -11.0177664
7.376                0.988895082     -11.0402902
7.378                0.988964641     -11.0664321
7.38                 0.989033279     -11.0925714
7.382                0.989100998     -11.1187082
7.384                0.989167796     -11.1448424
7.386                  0.9891812     -11.1728083
7.388                0.989193874     -11.2007454
7.39                 0.989205825     -11.2286539
7.392                0.989217056     -11.2565338
7.394                 0.98917256     -11.2831071
7.396                0.989127528     -11.3096574
7.398                0.989081969      -11.336185
7.4                  0.989035891     -11.3626901
7.402                0.988974609     -11.3859057
7.404                0.988912817     -11.4091084
7.406                0.988850519     -11.4322986
7.408                0.988787719     -11.4554766
7.41                 0.988758148     -11.4759209
7.412                0.988728988     -11.4963463
7.414                0.988700235     -11.5167529
7.416                0.988671892     -11.5371409
7.418                0.988698615     -11.5572656
7.42                 0.988726604     -11.5773799
7.422                 0.98875586     -11.5974837
7.424                0.988786385     -11.6175771
7.426                 0.98885604     -11.6400563
7.428                0.988926224     -11.6625462
7.43                 0.988996939      -11.685047
7.432                0.989068183     -11.7075586
7.434                0.989134841     -11.7335103
7.436                0.989200834     -11.7594648
7.438                0.989266164     -11.7854218
7.44                 0.989330831     -11.8113813
7.442                0.989348078     -11.8393562
7.444                 0.98936464      -11.867308
7.446                 0.98938052     -11.8952366
7.448                0.989395722     -11.9231421
7.45                 0.989356104     -11.9501386
7.452                0.989316012     -11.9771154
7.454                0.989275449     -12.0040726
7.456                0.989234419     -12.0310101
7.458                0.989173879     -12.0549248
7.46                 0.989112701     -12.0788327
7.462                0.989050889     -12.1027341
7.464                 0.98898845      -12.126629
7.466                 0.98895405     -12.1477638
7.468                0.988919684      -12.168884
7.47                 0.988885348     -12.1899901
7.472                 0.98885104     -12.2110822
7.474                0.988869201     -12.2316542
7.476                0.988888489     -12.2522128
7.478                0.988908902     -12.2727578
7.48                 0.988930439     -12.2932892
7.482                 0.98899222        -12.3159
7.484                0.989054841      -12.338518
7.486                  0.9891183     -12.3611431
7.488                0.989182598     -12.3837757
7.49                 0.989247038     -12.4097087
7.492                0.989311106      -12.435648
7.494                0.989374802     -12.4615936
7.496                0.989438123     -12.4875459
7.498                0.989459143     -12.5156945
7.5                  0.989479535     -12.5438248
7.502                0.989499303     -12.5719367
7.504                0.989518448     -12.6000302
7.506                0.989483338     -12.6275914
7.508                0.989447816     -12.6551343
7.51                 0.989411891     -12.6826591
7.512                0.989375564     -12.7101658
7.514                0.989315167     -12.7348995
7.516                0.989254076     -12.7596309
7.518                0.989192299     -12.7843602
7.52                  0.98912984     -12.8090878
7.522                0.989090337      -12.831005
7.524                0.989050506     -12.8529135
7.526                0.989010347     -12.8748135
7.528                0.988969865     -12.8967051
7.53                 0.988979739     -12.9178112
7.532                0.988990495     -12.9389022
7.534                0.989002135      -12.959978
7.536                0.989014662     -12.9810388
7.538                0.989069024     -13.0038875
7.54                 0.989124454      -13.026739
7.542                0.989180955     -13.0495932
7.544                0.989238526     -13.0724502
7.546                0.989300811       -13.09849
7.548                 0.98936305     -13.1245389
7.55                  0.98942524     -13.1505965
7.552                0.989487382      -13.176663
7.554                0.989511943     -13.2051067
7.556                0.989535957     -13.2335363
7.558                0.989559428     -13.2619518
7.56                 0.989582354     -13.2903533
7.562                0.989551489     -13.3185833
7.564                0.989520288     -13.3467952
7.566                0.989488754     -13.3749891
7.568                0.989456885     -13.4031647
7.57                 0.989396407     -13.4288073
7.572                0.989335249     -13.4544508
7.574                0.989273414     -13.4800953
7.576                0.989210909     -13.5057409
7.578                 0.98916621      -13.528519
7.58                 0.989120861     -13.5512944
7.582                0.989074863     -13.5740675
7.584                0.989028219     -13.5968385
7.586                0.989030243     -13.6185528
7.588                0.989032823     -13.6402515
7.59                 0.989035956     -13.6619348
7.592                0.989039642     -13.6836027
7.594                0.989087328     -13.7067802
7.596                0.989136223     -13.7299556
7.598                0.989186329     -13.7531288
7.6                  0.989237646     -13.7763001
7.602                0.989298337     -13.8025594
7.604                 0.98935933     -13.8288286
7.606                0.989420626     -13.8551076
7.608                0.989482221     -13.8813968
7.61                  0.98951075     -13.9102494
7.612                 0.98953886     -13.9390918
7.614                 0.98956655     -13.9679242
7.616                0.989593822     -13.9967465
7.618                0.989567607     -14.0257708
7.62                 0.989541128     -14.0547761
7.622                0.989514389     -14.0837624
7.624                0.989487392     -14.1127298
7.626                0.989426953     -14.1394218
7.628                0.989365902     -14.1661159
7.63                 0.989304243     -14.1928121
7.632                0.989241981     -14.2195104
7.634                0.989191943     -14.2432787
7.636                 0.98914098     -14.2670512
7.638                0.989089095     -14.2908279
7.64                 0.989036296     -14.3146088
7.642                0.989030434     -14.3370413
7.644                0.989024717     -14.3594598
7.646                0.989019145     -14.3818644
7.648                0.989013726     -14.4042553
7.65                 0.989054886     -14.4278684
7.652                0.989097283     -14.4514741
7.654                0.989140917     -14.4750727
7.656                0.989185791      -14.498664
7.658                0.989244998     -14.5252506
7.66                 0.989304875     -14.5518466
7.662                0.989365421     -14.5784519
7.664                0.989426637     -14.6050666
7.666                0.989459259     -14.6344462
7.668                0.989491644     -14.6638196
7.67                 0.989523791     -14.6931868
7.672                0.989555699     -14.7225478
7.674                0.989534415     -14.7524921
7.676                0.989512955     -14.7824156
7.678                0.989491321     -14.8123183
7.68                 0.989469508     -14.8422002
7.682                0.989409116     -14.8700843
7.684                0.989348235     -14.8979693
7.686                0.989286868     -14.9258555
7.688                0.989225017     -14.9537427
7.69                 0.989169214     -14.9786443
7.692                0.989112266     -15.0035562
7.694                 0.98905418     -15.0284789
7.696                 0.98899496     -15.0534123
7.698                0.988980624     -15.0766858
7.7                  0.988965948     -15.0999487
7.702                0.988950931     -15.1232012
7.704                0.988935573     -15.1464433
7.706                0.988969748     -15.1705867
7.708                0.989005055     -15.1947179
7.71                 0.989041496     -15.2188366
7.712                0.989079074     -15.2429433
7.714                0.989136463      -15.269936
7.716                0.989194888     -15.2969358
7.718                0.989254348     -15.3239428
7.72                 0.989314843     -15.3509572
7.722                0.989351606     -15.3809299
7.724                0.989388387     -15.4108999
7.726                0.989425187     -15.4408672
7.728                0.989462006      -15.470832
7.73                 0.989446221     -15.5017865
7.732                0.989430367     -15.5327178
7.734                0.989414448      -15.563626
7.736                0.989398462     -15.5945111
7.738                0.989338757     -15.6237142
7.74                 0.989278745     -15.6529148
7.742                0.989218427     -15.6821127
7.744                0.989157804     -15.7113081
7.746                0.989096434     -15.7374901
7.748                0.989033767      -15.763689
7.75                 0.988969806     -15.7899046
7.752                0.988904562     -15.8161368
7.754                0.988881724     -15.8403842
7.756                0.988857972     -15.8646265
7.758                0.988833309     -15.8888638
7.76                 0.988807736     -15.9130962
7.762                0.988834908     -15.9378862
7.764                0.988862954     -15.9626591
7.766                0.988891869     -15.9874149
7.768                0.988921654     -16.0121537
7.77                  0.98897724     -16.0396581
7.772                0.989034213     -16.0671658
7.774                0.989092575     -16.0946767
7.776                0.989152328     -16.1221907
7.778                0.989193474      -16.152862
7.78                 0.989234996     -16.1835338
7.782                0.989276893     -16.2142062
7.784                0.989319162     -16.2448794
7.786                 0.98930961     -16.2769739
7.788                0.989300154      -16.309042
7.79                 0.989290792      -16.341084
7.792                0.989281519     -16.3730996
7.794                0.989223077     -16.4037981
7.796                0.989164587      -16.434487
7.798                0.989106051     -16.4651663
7.8                  0.989047466      -16.495836
7.802                0.988980359     -16.5235004
7.804                0.988911874     -16.5511866
7.806                0.988842017     -16.5788948
7.808                0.988770792      -16.606625
7.81                  0.98873863     -16.6320283
7.812                 0.98870487     -16.6574346
7.814                0.988669516     -16.6828439
7.816                 0.98863257      -16.708256
7.818                0.988651747     -16.7338257
7.82                 0.988671304     -16.7593738
7.822                0.988691244     -16.7849005
7.824                0.988711569     -16.8104062
7.826                0.988764319     -16.8385159
7.828                 0.98881877     -16.8666226
7.83                 0.988874925     -16.8947264
7.832                0.988932785     -16.9228274
7.834                0.988977756     -16.9542652
7.836                  0.9890236     -16.9857064
7.838                0.989070317     -17.0171511
7.84                 0.989117909     -17.0485993
7.842                0.989114892     -17.0819196
7.844                0.989112221     -17.1152097
7.846                0.989109898     -17.1484695
7.848                 0.98910792     -17.1816989
7.85                 0.989051212     -17.2140382
7.852                0.988994847     -17.2463554
7.854                0.988938824     -17.2786506
7.856                 0.98888314     -17.3109236
7.858                0.988810164     -17.3402454
7.86                 0.988735837     -17.3695929
7.862                0.988660161     -17.3989661
7.864                0.988583143     -17.4283645
7.866                0.988541189      -17.455074
7.868                0.988496757     -17.4817986
7.87                 0.988449849     -17.5085377
7.872                0.988400472     -17.5352909
7.874                0.988410989     -17.5617505
7.876                0.988421047     -17.5881849
7.878                0.988430643     -17.6145942
7.88                 0.988439778     -17.6409786
7.882                0.988489181     -17.6697506
7.884                0.988540542     -17.6985101
7.886                0.988593864      -17.727257
7.888                0.988649153     -17.7559913
7.89                 0.988698103     -17.7882408
7.892                0.988748683     -17.8204963
7.894                0.988800896     -17.8527579
7.896                0.988854742     -17.8850254
7.898                0.988859623     -17.9196502
7.9                  0.988865304     -17.9542386
7.902                 0.98887178     -17.9887906
7.904                0.988879042     -18.0233061
7.906                0.988825721     -18.0574598
7.908                0.988773426     -18.0915678
7.91                 0.988722152     -18.1256297
7.912                0.988671894     -18.1596453
7.914                0.988594088     -18.1908606
7.916                0.988515157     -18.2221013
7.918                0.988435107     -18.2533677
7.92                 0.988353939     -18.2846595
7.922                0.988302682     -18.3129125
7.924                0.988247615     -18.3412004
7.926                0.988188742      -18.369522
7.928                0.988126068     -18.3978758
7.93                 0.988128038     -18.4254116
7.932                0.988127932      -18.452919
7.934                0.988125756     -18.4803979
7.936                0.988121517     -18.5078483
7.938                0.988166794     -18.5374154
7.94                 0.988214197     -18.5669521
7.942                0.988263732     -18.5964586
7.944                0.988315406     -18.6259358
7.946                0.988367537     -18.6590744
7.948                0.988422768     -18.6922222
7.95                 0.988481107     -18.7253783
7.952                0.988542562     -18.7585416
7.954                0.988556136     -18.7946077
7.956                0.988571467      -18.830626
7.958                0.988588547     -18.8665959
7.96                 0.988607365     -18.9025169
7.962                 0.98855777     -18.9387647
7.964                0.988510769      -18.974903
7.966                 0.98846634     -19.0109297
7.968                0.988424454     -19.0468428
7.97                 0.988340858     -19.0802615
7.972                 0.98825712     -19.1136876
7.974                0.988173239     -19.1471212
7.976                0.988089217     -19.1805621
7.978                0.988028925     -19.2105492
7.98                 0.987961991      -19.240619
7.982                0.987888415     -19.2707663
7.984                0.987808194     -19.3009858
7.986                0.987802681     -19.3296516
7.988                0.987790925     -19.3582868
7.99                 0.987772935      -19.386888
7.992                0.987748734     -19.4154518
7.994                0.987788931     -19.4457107
7.996                0.987831852     -19.4758801
7.998                 0.98787752     -19.5059646
8                    0.987925962      -19.535969
8.002                0.987976923     -19.5697604
8.004                0.988038969      -19.603568
8.006                0.988112138     -19.6373793
8.008                0.988196464     -19.6711816
8.01                 0.988225502     -19.7087713
8.012                0.988261385     -19.7462112
8.014                0.988303931     -19.7834951
8.016                0.988352943      -19.820619
8.018                 0.98831619     -19.8613488
8.02                 0.988291887     -19.9006174
8.022                0.988276361     -19.9384244
8.024                0.988266107     -19.9747925
8.026                0.988137696     -20.0150582
8.028                0.988051866     -20.0532395
8.03                 0.988001662     -20.0889943
8.032                0.987979473     -20.1220407
8.034                0.987918981      -20.153032
8.036                0.987846075     -20.1858335
8.038                0.987763237     -20.2205129
8.04                 0.987673031     -20.2571285
8.042                0.987706831     -20.2858197
8.044                0.987695859     -20.3168321
8.046                0.987635563     -20.3499153
8.048                0.987521855     -20.3847999
8.05                 0.987613934     -20.4160796
8.052                0.987654589     -20.4485543
8.054                0.987640733     -20.4818433
8.056                0.987570143     -20.5155503
8.058                 0.98765848     -20.5503273
8.06                 0.987711834      -20.585769
8.062                0.987728573     -20.6216593
8.064                0.987707422      -20.657775
8.066                0.987747028     -20.6958068
8.068                0.987767833     -20.7341964
8.07                 0.987769238     -20.7728625
8.072                0.987750763     -20.8117216
8.074                0.987725453     -20.8507364
8.076                0.987688867     -20.8899688
8.078                0.987640853     -20.9293916
8.08                 0.987581283     -20.9689777
8.082                0.987504462     -21.0063338
8.084                0.987422261     -21.0437274
8.086                0.987334681      -21.081157
8.088                0.987241722     -21.1186209
8.09                 0.987152597     -21.1530163
8.092                0.987067982     -21.1873354
8.094                0.986987855     -21.2215747
8.096                0.986912196     -21.2557301
8.098                0.986863429     -21.2881995
8.1                  0.986824314     -21.3206508
8.102                0.986794854     -21.3530702
8.104                0.986775047      -21.385444
8.106                0.986795365     -21.4188842
8.108                0.986819498     -21.4523504
8.11                 0.986847467     -21.4858409
8.112                0.986879291     -21.5193538
8.114                0.986938738     -21.5563802
8.116                0.986996108     -21.5933876
8.118                0.987051382      -21.630374
8.12                 0.987104548     -21.6673387
8.122                0.987143818     -21.7081334
8.124                0.987179284     -21.7489378
8.126                0.987210918      -21.789748
8.128                0.987238693     -21.8305599
8.13                 0.987217099     -21.8728708
8.132                0.987190925     -21.9152575
8.134                0.987160142     -21.9577149
8.136                0.987124709     -22.0002379
8.138                0.987043826     -22.0409626
8.14                 0.986959293     -22.0817286
8.142                0.986871106     -22.1225344
8.144                0.986779259     -22.1633784
8.146                0.986680182     -22.2006861
8.148                0.986582134     -22.2379614
8.15                 0.986485113     -22.2752041
8.152                0.986389114     -22.3124138
8.154                0.986327271     -22.3470938
8.156                0.986270797     -22.3817506
8.158                0.986219684     -22.4163801
8.16                 0.986173936     -22.4509777
8.162                0.986181451     -22.4859899
8.164                0.986192809     -22.5210126
8.166                0.986208026     -22.5560439
8.168                0.986227117     -22.5910816
8.17                 0.986283343      -22.629524
8.172                0.986339608     -22.6679501
8.174                0.986395905     -22.7063596
8.176                0.986452232     -22.7447535
8.178                0.986498914     -22.7874826
8.18                 0.986543718     -22.8301947
8.182                0.986586631     -22.8728886
8.184                0.986627638      -22.915563
8.186                0.986614926     -22.9606083
8.188                0.986599147     -23.0056909
8.19                 0.986580278     -23.0508084
8.192                0.986558298     -23.0959586
8.194                0.986478649     -23.1399294
8.196                0.986395704     -23.1839402
8.198                0.986309461     -23.2279897
8.2                  0.986219912      -23.272076