! TOUCHSTONE file generated by CST DESIGN STUDIO
! Date and time: Mon Feb 10 16:52:26 2025
! Project name: C:\Work\MatlabApps\UnitCellType2OptimizationMatlab\CST\unitcell.cst
! Tree item: Tasks\Sweep1\SPara1\S-Parameters
! Header version: 2024
! Port assignment regex: !\s*Touchstone port\s*([0-9]+)\s*=\s*(CST MWS port|CST DES external port|CST DES block port)\s*(.+)\s* \(\"(.*)\"\)(\s*mode\s*([0-9]+))?.*
! Touchstone port assignment:
! Touchstone port 1 = CST DES external port 1 ("")
# GHz S MA R 50
7                     0.99055091      -9.5079696
7.002                 0.99054384     -9.52528052
7.004                0.990536699     -9.54258746
7.006                0.990529484     -9.55989045
7.008                0.990522198     -9.57718952
7.01                 0.990521073     -9.59443984
7.012                0.990519859     -9.61168881
7.014                0.990518556     -9.62893646
7.016                0.990517166     -9.64618278
7.018                0.990522026     -9.66343973
7.02                 0.990526771     -9.68069421
7.022                0.990531402     -9.69794623
7.024                0.990535921      -9.7151958
7.026                0.990546487     -9.73252245
7.028                0.990557009     -9.74984491
7.03                 0.990567489     -9.76716323
7.032                0.990577926     -9.78447743
7.034                0.990594044     -9.80192616
7.036                0.990610141     -9.81937229
7.038                0.990626218     -9.83681584
7.04                 0.990642274     -9.85425685
7.042                0.990663713     -9.87188341
7.044                0.990685068     -9.88950798
7.046                0.990706341     -9.90713055
7.048                0.990727531     -9.92475118
7.05                 0.990753627     -9.94261353
7.052                0.990779655      -9.9604715
7.054                0.990805614     -9.97832513
7.056                0.990831507     -9.99617445
7.058                0.990861454     -10.0143228
7.06                 0.990891417     -10.0324663
7.062                0.990921395     -10.0506048
7.064                0.990951389     -10.0687385
7.066                0.990984436     -10.0872046
7.068                0.991017487     -10.1056675
7.07                 0.991050541     -10.1241272
7.072                0.991083598     -10.1425836
7.074                0.991118806     -10.1614011
7.076                0.991153963     -10.1802143
7.078                 0.99118907     -10.1990231
7.08                 0.991224127     -10.2178276
7.082                 0.99126034     -10.2370096
7.084                 0.99129655     -10.2561846
7.086                0.991332758     -10.2753526
7.088                0.991368965     -10.2945137
7.09                 0.991405173     -10.3140571
7.092                0.991441439      -10.333594
7.094                0.991477763     -10.3531246
7.096                0.991514145     -10.3726489
7.098                0.991549584     -10.3925486
7.1                  0.991585046     -10.4124436
7.102                 0.99162053      -10.432334
7.104                0.991656036     -10.4522197
7.106                0.991689828     -10.4724656
7.108                0.991723617     -10.4927059
7.11                 0.991757402     -10.5129405
7.112                0.991791184     -10.5331695
7.114                0.991822412      -10.553745
7.116                0.991853685     -10.5743139
7.118                0.991885001     -10.5948761
7.12                 0.991916362     -10.6154317
7.122                0.991944276     -10.6363091
7.124                0.991972235     -10.6571808
7.126                0.992000239      -10.678047
7.128                0.992028287     -10.6989078
7.13                  0.99205223      -10.720053
7.132                0.992076161     -10.7411925
7.134                0.992100079     -10.7623263
7.136                0.992123985     -10.7834543
7.138                0.992143216     -10.8048291
7.14                  0.99216245      -10.826196
7.142                0.992181689      -10.847555
7.144                0.992200933     -10.8689063
7.146                0.992215013     -10.8904536
7.148                0.992229158     -10.9119933
7.15                 0.992243371     -10.9335255
7.152                0.992257649     -10.9550503
7.154                0.992266441      -10.976715
7.156                0.992275279     -10.9983745
7.158                0.992284164      -11.020029
7.16                 0.992293094     -11.0416783
7.162                0.992296645     -11.0634122
7.164                 0.99230019     -11.0851415
7.166                0.992303731      -11.106866
7.168                0.992307268     -11.1285858
7.17                 0.992305571     -11.1503457
7.172                0.992303888     -11.1721001
7.174                0.992302219     -11.1938491
7.176                0.992300566     -11.2155927
7.178                0.992293855       -11.23733
7.18                 0.992287175     -11.2590631
7.182                0.992280527      -11.280792
7.184                0.992273912     -11.3025167
7.186                0.992262565     -11.3241901
7.188                0.992251197     -11.3458605
7.19                 0.992239808     -11.3675282
7.192                0.992228398     -11.3891931
7.194                0.992212783     -11.4107645
7.196                0.992197121     -11.4323324
7.198                 0.99218141     -11.4538968
7.2                  0.992165651     -11.4754578
7.202                0.992146187     -11.4968865
7.204                0.992126709     -11.5183118
7.206                0.992107214     -11.5397337
7.208                0.992087705     -11.5611523
7.21                 0.992065184     -11.5824035
7.212                0.992042636     -11.6036532
7.214                0.992020061     -11.6249014
7.216                 0.99199746     -11.6461481
7.218                0.991972741     -11.6672008
7.22                 0.991947942     -11.6882524
7.222                0.991923065      -11.709303
7.224                0.991898108     -11.7303524
7.226                0.991871992     -11.7511956
7.228                0.991845804     -11.7720364
7.23                 0.991819547     -11.7928749
7.232                0.991793219     -11.8137111
7.234                 0.99176654     -11.8343401
7.236                0.991739827     -11.8549673
7.238                0.991713079     -11.8755927
7.24                 0.991686298     -11.8962162
7.242                0.991659957     -11.9166369
7.244                0.991633545     -11.9370578
7.246                0.991607062     -11.9574789
7.248                 0.99158051     -11.9779002
7.25                 0.991555281     -11.9981291
7.252                0.991529929     -12.0183586
7.254                0.991504454     -12.0385886
7.256                0.991478857     -12.0588192
7.258                0.991455357     -12.0788745
7.26                  0.99143175     -12.0989299
7.262                0.991408035     -12.1189854
7.264                0.991384213      -12.139041
7.266                0.991363103     -12.1589417
7.268                0.991341909     -12.1788432
7.27                 0.991320629     -12.1987454
7.272                0.991299266     -12.2186485
7.274                0.991281239     -12.2384288
7.276                0.991263118       -12.25821
7.278                0.991244902      -12.277992
7.28                 0.991226592     -12.2977748
7.282                0.991212184     -12.3174748
7.284                 0.99119771     -12.3371739
7.286                0.991183169     -12.3568721
7.288                0.991168562     -12.3765694
7.29                 0.991158084     -12.3962361
7.292                0.991147599     -12.4159013
7.294                0.991137108     -12.4355652
7.296                 0.99112661     -12.4552277
7.298                0.991120432     -12.4749028
7.3                  0.991114236     -12.4945783
7.302                0.991108023     -12.5142542
7.304                0.991101793     -12.5339304
7.306                0.991100008     -12.5536686
7.308                0.991098145     -12.5734079
7.31                 0.991096204     -12.5931484
7.312                0.991094185     -12.6128899
7.314                0.991096548     -12.6327373
7.316                0.991098835     -12.6525849
7.318                0.991101046     -12.6724329
7.32                 0.991103182     -12.6922811
7.322                0.991109407     -12.7122797
7.324                0.991115608     -12.7322787
7.326                0.991121784     -12.7522779
7.328                0.991127936     -12.7722774
7.33                 0.991137788     -12.7924615
7.332                0.991147643     -12.8126461
7.334                0.991157502     -12.8328313
7.336                0.991167364      -12.853017
7.338                0.991180469     -12.8734257
7.34                 0.991193608     -12.8938339
7.342                0.991206782     -12.9142413
7.344                0.991219989     -12.9346481
7.346                0.991235894     -12.9553154
7.348                0.991251883     -12.9759811
7.35                 0.991267958     -12.9966452
7.352                0.991284118     -13.0173077
7.354                0.991302315     -13.0382622
7.356                0.991320589     -13.0592161
7.358                0.991338939     -13.0801694
7.36                 0.991357365     -13.1011221
7.362                0.991377276     -13.1223877
7.364                0.991397187     -13.1436533
7.366                0.991417099     -13.1649189
7.368                0.991437011     -13.1861845
7.37                  0.99145781     -13.2077775
7.372                0.991478582     -13.2293694
7.374                0.991499328     -13.2509602
7.376                0.991520047     -13.2725499
7.378                0.991540829     -13.2944744
7.38                  0.99156163     -13.3163972
7.382                0.991582451     -13.3383185
7.384                0.991603291     -13.3602382
7.386                0.991623331     -13.3824867
7.388                0.991643429     -13.4047344
7.39                 0.991663585     -13.4269811
7.392                0.991683799     -13.4492269
7.394                0.991702526     -13.4717895
7.396                0.991721329     -13.4943509
7.398                0.991740207     -13.5169112
7.4                   0.99175916     -13.5394704
7.402                0.991775946      -13.562335
7.404                0.991792836     -13.5851976
7.406                 0.99180983     -13.6080581
7.408                0.991826928     -13.6309166
7.41                 0.991841325     -13.6540621
7.412                0.991855819     -13.6772061
7.414                 0.99187041     -13.7003484
7.416                0.991885098     -13.7234891
7.418                0.991896648     -13.7468948
7.42                  0.99190822     -13.7702997
7.422                0.991919815     -13.7937037
7.424                0.991931431     -13.8171069
7.426                0.991939683     -13.8407427
7.428                0.991947902      -13.864377
7.43                 0.991956087     -13.8880099
7.432                 0.99196424     -13.9116413
7.434                0.991968684     -13.9354773
7.436                0.991973117     -13.9593114
7.438                0.991977538     -13.9831436
7.44                 0.991981949     -14.0069739
7.442                0.991982356     -14.0309659
7.444                0.991982786     -14.0549568
7.446                 0.99198324     -14.0789466
7.448                0.991983717     -14.1029355
7.45                 0.991980071     -14.1270457
7.452                0.991976458     -14.1511552
7.454                0.991972878     -14.1752639
7.456                 0.99196933      -14.199372
7.458                0.991961724     -14.2235626
7.46                 0.991954169     -14.2477517
7.462                0.991946664     -14.2719394
7.464                0.991939209     -14.2961255
7.466                 0.99192785     -14.3203646
7.468                0.991916547     -14.3446024
7.47                   0.9919053     -14.3688388
7.472                0.991894109     -14.3930741
7.474                 0.99187936     -14.4173295
7.476                0.991864605      -14.441585
7.478                0.991849844     -14.4658407
7.48                 0.991835077     -14.4900965
7.482                0.991817289     -14.5143417
7.484                0.991799415     -14.5385876
7.486                0.991781455     -14.5628342
7.488                0.991763409     -14.5870814
7.49                 0.991742808     -14.6112944
7.492                0.991722107     -14.6355079
7.494                0.991701304     -14.6597219
7.496                0.991680401     -14.6839364
7.498                0.991657419     -14.7080869
7.5                  0.991634362     -14.7322384
7.502                 0.99161123     -14.7563908
7.504                0.991588024     -14.7805442
7.506                0.991563241     -14.8046182
7.508                0.991538401     -14.8286931
7.51                 0.991513505      -14.852769
7.512                0.991488553     -14.8768459
7.514                0.991462635     -14.9008317
7.516                0.991436691     -14.9248172
7.518                 0.99141072     -14.9488024
7.52                 0.991384723     -14.9727874
7.522                0.991358366     -14.9966817
7.524                0.991332013     -15.0205752
7.526                0.991305666      -15.044468
7.528                0.991279325     -15.0683599
7.53                 0.991253294     -15.0921667
7.532                0.991227233     -15.1159742
7.534                 0.99120114     -15.1397823
7.536                0.991175018     -15.1635911
7.538                0.991149986     -15.1873246
7.54                 0.991124836     -15.2110602
7.542                0.991099565     -15.2347977
7.544                0.991074175     -15.2585373
7.546                0.991050571     -15.2822199
7.548                0.991026806     -15.3059046
7.55                 0.991002882     -15.3295914
7.552                0.990978797     -15.3532803
7.554                0.990956977     -15.3769295
7.556                0.990935029     -15.4005807
7.558                0.990912953     -15.4242339
7.56                  0.99089075      -15.447889
7.562                0.990871104     -15.4715283
7.564                0.990851387     -15.4951691
7.566                0.990831596     -15.5188115
7.568                0.990811734     -15.5424555
7.57                 0.990794631     -15.5661125
7.572                0.990777522     -15.5897696
7.574                0.990760407     -15.6134266
7.576                0.990743287     -15.6370837
7.578                0.990729047     -15.6607946
7.58                 0.990714866     -15.6845044
7.582                0.990700743      -15.708213
7.584                0.990686679     -15.7319206
7.586                0.990675666     -15.7557158
7.588                0.990664703     -15.7795109
7.59                  0.99065379     -15.8033059
7.592                0.990642927     -15.8271007
7.594                0.990635339     -15.8510214
7.596                0.990627709     -15.8749436
7.598                0.990620038     -15.8988672
7.6                  0.990612326     -15.9227923
7.602                 0.99060801     -15.9468795
7.604                0.990603587     -15.9709684
7.606                0.990599058     -15.9950591
7.608                0.990594422     -16.0191514
7.61                  0.99059304     -16.0434399
7.612                 0.99059158     -16.0677298
7.614                0.990590042     -16.0920211
7.616                0.990588427     -16.1163137
7.618                0.990589605     -16.1408358
7.62                 0.990590788     -16.1653589
7.622                0.990591973     -16.1898832
7.624                0.990593162     -16.2144084
7.626                0.990596589     -16.2391906
7.628                0.990600108     -16.2639727
7.63                  0.99060372     -16.2887549
7.632                0.990607425     -16.3135371
7.634                0.990612735     -16.3386016
7.636                0.990618211     -16.3636649
7.638                0.990623853     -16.3887271
7.64                  0.99062966     -16.4137882
7.642                0.990636613     -16.4391582
7.644                0.990643728     -16.4645274
7.646                0.990651004     -16.4898959
7.648                0.990658441     -16.5152637
7.65                 0.990666704     -16.5409548
7.652                0.990675023     -16.5666464
7.654                  0.9906834     -16.5923386
7.656                0.990691833     -16.6180313
7.658                0.990700795     -16.6440629
7.66                 0.990709711     -16.6700953
7.662                0.990718581     -16.6961285
7.664                0.990727404     -16.7221624
7.666                0.990736318     -16.7485408
7.668                0.990745182     -16.7749196
7.67                 0.990753997     -16.8012986
7.672                0.990762763      -16.827678
7.674                0.990770892      -16.854402
7.676                0.990779047     -16.8811263
7.678                0.990787228     -16.9078508
7.68                 0.990795435     -16.9345755
7.682                0.990802182     -16.9616322
7.684                0.990809046     -16.9886887
7.686                0.990816026     -17.0157449
7.688                0.990823123      -17.042801
7.69                 0.990828088     -17.0701825
7.692                 0.99083324     -17.0975628
7.694                0.990838576      -17.124942
7.696                0.990844099       -17.15232
7.698                0.990846976     -17.1800082
7.7                  0.990850039     -17.2076952
7.702                0.990853286      -17.235381
7.704                0.990856718     -17.2630656
7.706                0.990857325       -17.29104
7.708                0.990858012     -17.3190143
7.71                 0.990858779     -17.3469885
7.712                0.990859624     -17.3749625
7.714                0.990857682     -17.4032059
7.716                0.990855684     -17.4314497
7.718                0.990853629     -17.4596941
7.72                 0.990851519     -17.4879389
7.722                0.990846626      -17.516426
7.724                0.990841626     -17.5449135
7.726                 0.99083652     -17.5734013
7.728                0.990831308     -17.6018895
7.73                 0.990823067      -17.630599
7.732                0.990814768     -17.6593088
7.734                0.990806411      -17.688019
7.736                0.990797997     -17.7167295
7.738                0.990786295      -17.745624
7.74                 0.990774624     -17.7745184
7.742                0.990762984     -17.8034128
7.744                0.990751375     -17.8323072
7.746                0.990736258     -17.8613606
7.748                0.990721253     -17.8904128
7.75                  0.99070636     -17.9194639
7.752                0.990691579     -17.9485138
7.754                0.990673344     -17.9776936
7.756                0.990655245     -18.0068717
7.758                0.990637283      -18.036048
7.76                 0.990619457     -18.0652227
7.762                0.990598527     -18.0945052
7.764                0.990577647     -18.1237871
7.766                0.990556818     -18.1530684
7.768                 0.99053604     -18.1823491
7.77                  0.99051286     -18.2117142
7.772                0.990489574     -18.2410803
7.774                0.990466183     -18.2704474
7.776                0.990442686     -18.2998155
7.778                0.990417499     -18.3292527
7.78                 0.990392101     -18.3586917
7.782                0.990366492     -18.3881325
7.784                0.990340673     -18.4175749
7.786                 0.99031364      -18.447069
7.788                0.990286409     -18.4765647
7.79                 0.990258979     -18.5060621
7.792                0.990231351     -18.5355612
7.794                0.990202739     -18.5650993
7.796                0.990174028      -18.594638
7.798                0.990145217     -18.6241774
7.8                  0.990116306     -18.6537175
7.802                0.990086557     -18.6832976
7.804                0.990056834     -18.7128763
7.806                0.990027137     -18.7424537
7.808                0.989997467     -18.7720297
7.81                 0.989967184     -18.8016453
7.812                0.989937007      -18.831258
7.814                0.989906938     -18.8608678
7.816                0.989876977     -18.8904748
7.818                0.989846951     -18.9201268
7.82                 0.989816988     -18.9497767
7.822                0.989787088     -18.9794245
7.824                 0.98975725     -19.0090702
7.826                0.989728144     -19.0387694
7.828                0.989698935     -19.0684687
7.83                 0.989669624     -19.0981683
7.832                0.989640211     -19.1278681
7.834                0.989612496     -19.1576363
7.836                0.989584524     -19.1874065
7.838                0.989556294     -19.2171786
7.84                 0.989527807     -19.2469526
7.842                0.989501631     -19.2768139
7.844                0.989475177     -19.3066774
7.846                0.989448442     -19.3365429
7.848                0.989421427     -19.3664105
7.85                 0.989396859      -19.396389
7.852                0.989372137      -19.426368
7.854                0.989347258     -19.4563477
7.856                0.989322224     -19.4863279
7.858                0.989299396     -19.5164526
7.86                 0.989276615     -19.5465752
7.862                0.989253881     -19.5766956
7.864                0.989231193     -19.6068138
7.866                0.989210376     -19.6371044
7.868                0.989189768     -19.6673907
7.87                 0.989169369     -19.6976726
7.872                0.989149181     -19.7279501
7.874                0.989130797     -19.7584384
7.876                0.989112625     -19.7889226
7.878                0.989094664     -19.8194026
7.88                 0.989076916     -19.8498784
7.882                0.989061302     -19.8805926
7.884                0.989045725     -19.9113049
7.886                0.989030183     -19.9420154
7.888                0.989014677     -19.9727239
7.89                 0.989001867     -20.0036993
7.892                0.988988879     -20.0346751
7.894                0.988975713     -20.0656513
7.896                0.988962368     -20.0966279
7.898                0.988951991     -20.1279008
7.9                  0.988941358     -20.1591748
7.902                0.988930467       -20.19045
7.904                0.988919319     -20.2217262
7.906                0.988910749     -20.2533265
7.908                0.988902048     -20.2849265
7.91                 0.988893217     -20.3165263
7.912                0.988884254     -20.3481258
7.914                 0.98887696     -20.3800827
7.916                0.988869803     -20.4120368
7.918                0.988862784      -20.443988
7.92                 0.988855901     -20.4759362
7.922                0.988849559     -20.5082672
7.924                0.988843596     -20.5405931
7.926                0.988838012      -20.572914
7.928                0.988832808     -20.6052298
7.93                 0.988827395     -20.6379466
7.932                0.988822398     -20.6706581
7.934                0.988817818     -20.7033645
7.936                0.988813654     -20.7360656
7.938                0.988809141     -20.7691813
7.94                 0.988804839     -20.8022934
7.942                0.988800749     -20.8354019
7.944                0.988796871     -20.8685069
7.946                0.988792968     -20.9020326
7.948                0.988788981      -20.935557
7.95                 0.988784911     -20.9690801
7.952                0.988780757     -21.0026019
7.954                0.988776801     -21.0365533
7.956                0.988772584     -21.0705048
7.958                0.988768106     -21.1044565
7.96                 0.988763365     -21.1384082
7.962                0.988758425     -21.1727892
7.964                0.988753295     -21.2071696
7.966                0.988747975     -21.2415492
7.968                0.988742464      -21.275928
7.97                 0.988735677     -21.3107307
7.972                0.988729001       -21.34553
7.974                0.988722437     -21.3803258
7.976                0.988715985     -21.4151183
7.978                0.988706911     -21.4503359
7.98                  0.98869828     -21.4855478
7.982                0.988690092      -21.520754
7.984                0.988682348     -21.5559545
7.986                 0.98867098     -21.5915656
7.988                0.988660151     -21.6271707
7.99                 0.988649862     -21.6627696
7.992                0.988640115     -21.6983623
7.994                0.988626677     -21.7343518
7.996                0.988613557     -21.7703361
7.998                0.988600756     -21.8063153
8                    0.988588275     -21.8422892
8.002                0.988572853     -21.8786339
8.004                0.988557368     -21.9149757
8.006                0.988541822     -21.9513147
8.008                0.988526212     -21.9876509
8.01                 0.988508517     -22.0243431
8.012                0.988490445     -22.0610356
8.014                0.988471996     -22.0977284
8.016                0.988453169     -22.1344215
8.018                0.988432671     -22.1714407
8.02                 0.988411747     -22.2084606
8.022                0.988390395     -22.2454812
8.024                0.988368614     -22.2825025
8.026                0.988344644     -22.3198402
8.028                 0.98832055     -22.3571748
8.03                 0.988296333     -22.3945064
8.032                0.988271991     -22.4318349
8.034                0.988244323     -22.4694632
8.036                0.988217012     -22.5070841
8.038                 0.98819006     -22.5446977
8.04                 0.988163467      -22.582304
8.042                0.988132528     -22.6201945
8.044                0.988102202     -22.6580764
8.046                0.988072492     -22.6959494
8.048                0.988043397     -22.7338134
8.05                 0.988010133     -22.7719496
8.052                0.987977291     -22.8100776
8.054                0.987944874     -22.8481973
8.056                0.987912881     -22.8863087
8.058                0.987878067     -22.9246646
8.06                 0.987843201     -22.9630153
8.062                0.987808282     -23.0013606
8.064                 0.98777331     -23.0397007
8.066                0.987737331     -23.0782677
8.068                  0.9877008     -23.1168362
8.07                 0.987663715     -23.1554058
8.072                0.987626074     -23.1939768
8.074                0.987588925      -23.232748
8.076                0.987550959     -23.2715245
8.078                0.987512172     -23.3103061
8.08                 0.987472561     -23.3490927
8.082                0.987433761     -23.3880883
8.084                0.987394403     -23.4270836
8.086                0.987354485     -23.4660785
8.088                0.987314005     -23.5050732
8.09                 0.987273205     -23.5442965
8.092                0.987232601     -23.5835101
8.094                0.987192194      -23.622714
8.096                0.987151983     -23.6619082
8.098                0.987109733     -23.7013453
8.1                  0.987068317     -23.7407686
8.102                0.987027738     -23.7801779
8.104                0.986987999     -23.8195729
8.106                0.986945872     -23.8592269
8.108                0.986904515     -23.8988673
8.11                 0.986863931     -23.9384939
8.112                0.986824122     -23.9781064
8.114                0.986783403     -24.0179924
8.116                0.986742825     -24.0578674
8.118                0.986702389     -24.0977316
8.12                 0.986662097     -24.1375848
8.122                0.986623461     -24.1777037
8.124                0.986584181     -24.2178227
8.126                0.986544254     -24.2579418
8.128                0.986503677     -24.2980609
8.13                 0.986467266     -24.3384465
8.132                0.986429564     -24.3788445
8.134                0.986390563     -24.4192548
8.136                0.986350259     -24.4596768
8.138                0.986315216     -24.5003737
8.14                 0.986278952     -24.5410779
8.142                0.986241462      -24.581789
8.144                0.986202741     -24.6225068
8.146                0.986167466     -24.6635696
8.148                0.986132185     -24.7046209
8.15                 0.986096895     -24.7456608
8.152                0.986061599     -24.7866892
8.154                0.986025651     -24.8281355
8.156                0.985991246     -24.8695619
8.158                0.985958389     -24.9109675
8.16                 0.985927083     -24.9523518
8.162                0.985892397     -24.9941835
8.164                0.985859584     -25.0359977
8.166                 0.98582865     -25.0777936
8.168                0.985799602     -25.1195704
8.17                 0.985768197     -25.1618284
8.172                0.985737655     -25.2040687
8.174                0.985707978     -25.2462909
8.176                0.985679169     -25.2884951
8.178                0.985651578     -25.3311867
8.18                 0.985623483     -25.3738728
8.182                0.985594879     -25.4165533
8.184                0.985565765     -25.4592283
8.186                0.985541975     -25.5023623
8.188                0.985516232     -25.5455232
8.19                 0.985488522     -25.5887099
8.192                 0.98545883     -25.6319215
8.194                0.985437434      -25.675574
8.196                0.985413366     -25.7192594
8.198                0.985386603     -25.7629761
8.2                  0.985357126     -25.8067225