! TOUCHSTONE file generated by CST DESIGN STUDIO
! Date and time: Mon Feb 10 16:52:21 2025
! Project name: C:\Work\MatlabApps\UnitCellType2OptimizationMatlab\CST\unitcell.cst
! Tree item: Tasks\Sweep1\SPara1\S-Parameters
! Header version: 2024
! Port assignment regex: !\s*Touchstone port\s*([0-9]+)\s*=\s*(CST MWS port|CST DES external port|CST DES block port)\s*(.+)\s* \(\"(.*)\"\)(\s*mode\s*([0-9]+))?.*
! Touchstone port assignment:
! Touchstone port 1 = CST DES external port 1 ("")
# GHz S MA R 50
7                    0.993333013     -12.1409926
7.002                0.993315114     -12.1585357
7.004                0.993297183     -12.1760798
7.006                 0.99327922     -12.1936248
7.008                0.993261227     -12.2111708
7.01                 0.993245847     -12.2286822
7.012                0.993230439     -12.2461949
7.014                0.993215002      -12.263709
7.016                0.993199537     -12.2812244
7.018                0.993186918     -12.2987311
7.02                 0.993174271     -12.3162389
7.022                0.993161596      -12.333748
7.024                0.993148892     -12.3512582
7.026                 0.99313919     -12.3687926
7.028                0.993129475     -12.3863278
7.03                 0.993119747     -12.4038637
7.032                0.993110005     -12.4214005
7.034                0.993103358     -12.4389921
7.036                0.993096708     -12.4565847
7.038                0.993090053     -12.4741783
7.04                 0.993083395     -12.4917729
7.042                0.993079871     -12.5094541
7.044                0.993076338     -12.5271365
7.046                0.993072797       -12.54482
7.048                0.993069248     -12.5625047
7.05                  0.99306874     -12.5803103
7.052                 0.99306823     -12.5981166
7.054                0.993067717     -12.6159237
7.056                  0.9930672     -12.6337316
7.058                  0.9930695     -12.6516993
7.06                 0.993071813     -12.6696676
7.062                 0.99307414     -12.6876364
7.064                0.993076481     -12.7056059
7.066                0.993081281     -12.7237602
7.068                0.993086097     -12.7419154
7.07                 0.993090929     -12.7600714
7.072                0.993095776     -12.7782283
7.074                0.993102686     -12.7965968
7.076                0.993109605     -12.8149661
7.078                0.993116533     -12.8333361
7.08                 0.993123469     -12.8517069
7.082                0.993132034     -12.8703054
7.084                0.993140615     -12.8889041
7.086                0.993149213     -12.9075031
7.088                0.993157828     -12.9261023
7.09                 0.993167596     -12.9449428
7.092                0.993177391     -12.9637835
7.094                0.993187215     -12.9826244
7.096                0.993197066     -13.0014655
7.098                0.993207606     -13.0205609
7.1                  0.993218169     -13.0396569
7.102                0.993228756     -13.0587535
7.104                0.993239367     -13.0778505
7.106                0.993250202     -13.0972056
7.108                0.993261057      -13.116561
7.11                  0.99327193     -13.1359168
7.112                0.993282823     -13.1552729
7.114                0.993293451     -13.1748919
7.116                0.993304106     -13.1945109
7.118                0.993314788       -13.21413
7.12                 0.993325495     -13.2337492
7.122                0.993335392     -13.2536296
7.124                0.993345315     -13.2735102
7.126                0.993355265     -13.2933909
7.128                0.993365242     -13.3132719
7.13                 0.993373905     -13.3334036
7.132                0.993382585     -13.3535354
7.134                0.993391281     -13.3736675
7.136                0.993399993     -13.3937997
7.138                0.993406939     -13.4141707
7.14                 0.993413902     -13.4345415
7.142                0.993420881     -13.4549122
7.144                0.993427878     -13.4752826
7.146                0.993432766     -13.4958686
7.148                0.993437679     -13.5164544
7.15                 0.993442618     -13.5370399
7.152                0.993447583     -13.5576251
7.154                0.993450124     -13.5784045
7.156                0.993452686     -13.5991841
7.158                0.993455271     -13.6199638
7.16                 0.993457877     -13.6407437
7.162                0.993457913     -13.6616943
7.164                 0.99345796     -13.6826451
7.166                0.993458019     -13.7035963
7.168                 0.99345809     -13.7245478
7.17                 0.993455466     -13.7456498
7.172                0.993452854     -13.7667519
7.174                0.993450254     -13.7878542
7.176                0.993447666     -13.8089567
7.178                0.993442309     -13.8301847
7.18                 0.993436965     -13.8514132
7.182                0.993431634      -13.872642
7.184                0.993426315     -13.8938711
7.186                0.993418191      -13.915202
7.188                0.993410068     -13.9365337
7.19                 0.993401946      -13.957866
7.192                0.993393825     -13.9791992
7.194                0.993382976     -14.0006071
7.196                0.993372119     -14.0220157
7.198                0.993361254     -14.0434251
7.2                  0.993350382     -14.0648352
7.202                0.993336906     -14.0862939
7.204                0.993323425     -14.1077532
7.206                0.993309936     -14.1292132
7.208                0.993296441      -14.150674
7.21                 0.993280619     -14.1721596
7.212                0.993264786     -14.1936463
7.214                0.993248941     -14.2151341
7.216                0.993233084      -14.236623
7.218                 0.99321525     -14.2581178
7.22                 0.993197392     -14.2796138
7.222                0.993179509     -14.3011112
7.224                0.993161602     -14.3226099
7.226                0.993142122     -14.3440991
7.228                0.993122613     -14.3655894
7.23                 0.993103077     -14.3870807
7.232                0.993083513     -14.4085731
7.234                 0.99306278     -14.4300467
7.236                0.993042022     -14.4515213
7.238                0.993021239     -14.4729971
7.24                 0.993000431     -14.4944739
7.242                0.992978835     -14.5159272
7.244                0.992957206     -14.5373819
7.246                0.992935545     -14.5588381
7.248                0.992913852     -14.5802959
7.25                  0.99289177     -14.6017279
7.252                0.992869646     -14.6231615
7.254                0.992847478     -14.6445967
7.256                0.992825267     -14.6660336
7.258                0.992803106     -14.6874429
7.26                 0.992780903     -14.7088536
7.262                0.992758657     -14.7302658
7.264                 0.99273637     -14.7516795
7.266                0.992714539     -14.7730672
7.268                0.992692669     -14.7944564
7.27                 0.992670762     -14.8158471
7.272                0.992648818     -14.8372392
7.274                 0.99262777     -14.8586174
7.276                0.992606683      -14.879997
7.278                0.992585558      -14.901378
7.28                 0.992564394     -14.9227604
7.282                0.992544542     -14.9441422
7.284                0.992524656     -14.9655251
7.286                0.992504738     -14.9869089
7.288                0.992484787     -15.0082938
7.29                 0.992466415     -15.0297026
7.292                0.992448024     -15.0511121
7.294                0.992429613     -15.0725223
7.296                0.992411181     -15.0939333
7.298                0.992394584     -15.1153854
7.3                  0.992377969     -15.1368384
7.302                0.992361337     -15.1582924
7.304                0.992344687     -15.1797475
7.306                0.992330019     -15.2012701
7.308                0.992315326     -15.2227939
7.31                 0.992300609      -15.244319
7.312                0.992285868     -15.2658453
7.314                0.992273179     -15.2874597
7.316                 0.99226047     -15.3090751
7.318                0.992247739     -15.3306916
7.32                 0.992234988     -15.3523091
7.322                0.992224321     -15.3740395
7.324                0.992213646     -15.3957708
7.326                0.992202963      -15.417503
7.328                0.992192272     -15.4392361
7.33                 0.992183657     -15.4611012
7.332                0.992175043     -15.4829671
7.334                0.992166429     -15.5048339
7.336                0.992157816     -15.5267016
7.338                0.992151224     -15.5487265
7.34                  0.99214464      -15.570752
7.342                0.992138065      -15.592778
7.344                0.992131499     -15.6148047
7.346                0.992126833     -15.6370143
7.348                0.992122187     -15.6592243
7.35                 0.992117561     -15.6814345
7.352                0.992112955      -15.703645
7.354                0.992110011     -15.7260624
7.356                0.992107089     -15.7484803
7.358                0.992104189     -15.7708986
7.36                  0.99210131     -15.7933175
7.362                0.992099825     -15.8159629
7.364                 0.99209835      -15.838609
7.366                0.992096886      -15.861256
7.368                0.992095432     -15.8839037
7.37                 0.992095063     -15.9067919
7.372                  0.9920947     -15.9296808
7.374                0.992094344     -15.9525703
7.376                0.992093994     -15.9754605
7.378                 0.99209435     -15.9986032
7.38                 0.992094721     -16.0217464
7.382                0.992095107     -16.0448901
7.384                0.992095508     -16.0680342
7.386                0.992096224      -16.091437
7.388                0.992096963     -16.1148402
7.39                 0.992097725      -16.138244
7.392                 0.99209851     -16.1616482
7.394                0.992099297     -16.1853137
7.396                 0.99210011     -16.2089796
7.398                0.992100948      -16.232646
7.4                  0.992101813     -16.2563126
7.402                0.992102322     -16.2802455
7.404                0.992102862     -16.3041785
7.406                0.992103432     -16.3281116
7.408                0.992104032     -16.3520449
7.41                 0.992103964     -16.3762427
7.412                0.992103925     -16.4004407
7.414                0.992103915     -16.4246389
7.416                0.992103933     -16.4488374
7.418                0.992102915     -16.4732992
7.42                 0.992101911     -16.4977615
7.422                0.992100922     -16.5222244
7.424                0.992099948     -16.5466879
7.426                0.992097664      -16.571401
7.428                0.992095383     -16.5961146
7.43                 0.992093105     -16.6208288
7.432                 0.99209083     -16.6455435
7.434                0.992086932     -16.6705011
7.436                0.992083039     -16.6954592
7.438                0.992079152     -16.7204177
7.44                 0.992075269     -16.7453765
7.442                0.992069545     -16.7705589
7.444                0.992063832     -16.7957418
7.446                0.992058129     -16.8209252
7.448                0.992052435      -16.846109
7.45                 0.992044756     -16.8715008
7.452                0.992037087      -16.896893
7.454                0.992029427     -16.9222858
7.456                0.992021777     -16.9476791
7.458                0.992012078     -16.9732619
7.46                 0.992002388      -16.998845
7.462                0.991992709     -17.0244285
7.464                 0.99198304     -17.0500123
7.466                0.991971284     -17.0757741
7.468                0.991959537     -17.1015364
7.47                 0.991947799     -17.1272991
7.472                0.991936069     -17.1530621
7.474                0.991922274     -17.1789871
7.476                0.991908475     -17.2049129
7.478                0.991894671     -17.2308395
7.48                 0.991880862      -17.256767
7.482                0.991865068     -17.2828387
7.484                0.991849252     -17.3089116
7.486                0.991833414     -17.3349856
7.488                0.991817554     -17.3610607
7.49                 0.991799774     -17.3872672
7.492                0.991781966     -17.4134747
7.494                0.991764129     -17.4396834
7.496                0.991746264     -17.4658933
7.498                0.991726651     -17.4922119
7.5                  0.991707011     -17.5185317
7.502                0.991687344     -17.5448526
7.504                 0.99166765     -17.5711747
7.506                0.991646425     -17.5975966
7.508                0.991625174     -17.6240196
7.51                 0.991603896     -17.6504437
7.512                0.991582591      -17.676869
7.514                0.991560064     -17.7033822
7.516                0.991537512     -17.7298961
7.518                0.991514936     -17.7564109
7.52                 0.991492334     -17.7829264
7.522                0.991468816     -17.8095259
7.524                0.991445277     -17.8361259
7.526                0.991421715     -17.8627266
7.528                0.991398132     -17.8893278
7.53                  0.99137394     -17.9160114
7.532                0.991349719      -17.942696
7.534                0.991325469     -17.9693814
7.536                 0.99130119     -17.9960677
7.538                0.991276613     -18.0228382
7.54                  0.99125199       -18.04961
7.542                0.991227322     -18.0763831
7.544                0.991202608     -18.1031575
7.546                0.991177883     -18.1300214
7.548                0.991153104     -18.1568867
7.55                 0.991128272     -18.1837534
7.552                0.991103386     -18.2106214
7.554                0.991078759     -18.2375801
7.556                0.991054083       -18.26454
7.558                0.991029361     -18.2915011
7.56                  0.99100459     -18.3184634
7.562                0.990980323     -18.3455235
7.564                0.990956018     -18.3725845
7.566                0.990931676     -18.3996464
7.568                0.990907298     -18.4267092
7.57                 0.990883672     -18.4538803
7.572                0.990860022     -18.4810518
7.574                0.990836348     -18.5082235
7.576                 0.99081265     -18.5353956
7.578                0.990789911     -18.5626965
7.58                 0.990767162     -18.5899973
7.582                0.990744401     -18.6172979
7.584                0.990721629     -18.6445984
7.586                0.990700031     -18.6720416
7.588                0.990678423     -18.6994848
7.59                 0.990656806      -18.726928
7.592                 0.99063518     -18.7543711
7.594                0.990614868     -18.7819789
7.596                0.990594535      -18.809587
7.598                 0.99057418     -18.8371957
7.6                  0.990553803     -18.8648047
7.602                 0.99053479     -18.8925967
7.604                0.990515746     -18.9203893
7.606                0.990496672     -18.9481825
7.608                0.990477567     -18.9759764
7.61                 0.990459832     -19.0039705
7.612                0.990442074      -19.031965
7.614                0.990424293     -19.0599599
7.616                0.990406489     -19.0879553
7.618                0.990389966      -19.116171
7.62                 0.990373438     -19.1443868
7.622                0.990356904     -19.1726028
7.624                0.990340365     -19.2008188
7.626                0.990325032     -19.2292717
7.628                0.990309712     -19.2577241
7.63                 0.990294406     -19.2861762
7.632                0.990279113     -19.3146279
7.634                0.990264871     -19.3433329
7.636                0.990250658      -19.372037
7.638                0.990236473     -19.4007402
7.64                 0.990222316     -19.4294427
7.642                0.990209117     -19.4584201
7.644                0.990195947     -19.4873968
7.646                0.990182808     -19.5163727
7.648                0.990169698     -19.5453479
7.65                 0.990157394     -19.5746117
7.652                0.990145103     -19.6038753
7.654                0.990132825     -19.6331386
7.656                 0.99012056     -19.6624016
7.658                0.990108858     -19.6919696
7.66                 0.990097151     -19.7215377
7.662                0.990085439     -19.7511058
7.664                0.990073721     -19.7806741
7.666                0.990062334     -19.8105562
7.668                0.990050941     -19.8404384
7.67                 0.990039542     -19.8703205
7.672                0.990028137     -19.9002026
7.674                0.990016748     -19.9304063
7.676                0.990005367     -19.9606098
7.678                0.989993994      -19.990813
7.68                 0.989982629     -20.0210159
7.682                0.989970955      -20.051539
7.684                0.989959305     -20.0820615
7.686                 0.98994768     -20.1125833
7.688                0.989936079     -20.1431045
7.69                 0.989923933     -20.1739538
7.692                0.989911823      -20.204802
7.694                0.989899749     -20.2356492
7.696                0.989887711     -20.2664954
7.698                0.989874891       -20.29767
7.7                  0.989862107     -20.3288435
7.702                0.989849358     -20.3600161
7.704                0.989836643     -20.3911875
7.706                0.989822968     -20.4226846
7.708                0.989809308     -20.4541812
7.71                 0.989795663     -20.4856772
7.712                0.989782032     -20.5171726
7.714                0.989767281     -20.5489925
7.716                0.989752519     -20.5808123
7.718                0.989737744     -20.6126321
7.72                 0.989722957     -20.6444518
7.722                0.989706883      -20.676586
7.724                0.989690786     -20.7087203
7.726                0.989674664     -20.7408546
7.728                0.989658518      -20.772989
7.73                 0.989640878      -20.805437
7.732                 0.98962322      -20.837885
7.734                0.989605546     -20.8703328
7.736                0.989587854     -20.9027806
7.738                0.989568528     -20.9355239
7.74                 0.989549199     -20.9682668
7.742                0.989529868     -21.0010093
7.744                0.989510533     -21.0337513
7.746                0.989489472     -21.0667836
7.748                 0.98946842     -21.0998149
7.75                 0.989447377     -21.1328453
7.752                0.989426343     -21.1658748
7.754                0.989403602     -21.1991818
7.756                0.989380872     -21.2324877
7.758                0.989358153     -21.2657924
7.76                 0.989335444      -21.299096
7.762                0.989311083     -21.3326726
7.764                0.989286715     -21.3662485
7.766                 0.98926234     -21.3998237
7.768                0.989237957     -21.4333982
7.77                 0.989212058     -21.4672365
7.772                 0.98918612     -21.5010749
7.774                0.989160144     -21.5349134
7.776                 0.98913413     -21.5687519
7.778                0.989106722     -21.6028512
7.78                 0.989079253     -21.6369511
7.782                0.989051724     -21.6710514
7.784                0.989024134     -21.7051522
7.786                0.988995244      -21.739503
7.788                0.988966292     -21.7738541
7.79                 0.988937279     -21.8082056
7.792                0.988908205     -21.8425576
7.794                0.988877901     -21.8771509
7.796                0.988847552      -21.911744
7.798                0.988817156      -21.946337
7.8                  0.988786715     -21.9809297
7.802                0.988755191     -22.0157666
7.804                 0.98872364     -22.0506024
7.806                0.988692064     -22.0854372
7.808                0.988660463     -22.1202708
7.81                  0.98862793     -22.1553451
7.812                0.988595385     -22.1904176
7.814                0.988562826     -22.2254883
7.816                0.988530254     -22.2605573
7.818                0.988497039     -22.2958691
7.82                 0.988463801     -22.3311793
7.822                0.988430541     -22.3664879
7.824                0.988397259     -22.4017949
7.826                 0.98836357     -22.4373493
7.828                0.988329829     -22.4729028
7.83                 0.988296034     -22.5084556
7.832                0.988262187     -22.5440076
7.834                0.988228246     -22.5798155
7.836                0.988194223     -22.6156232
7.838                 0.98816012     -22.6514308
7.84                 0.988125935     -22.6872384
7.842                0.988091822       -22.72331
7.844                0.988057625     -22.7593815
7.846                0.988023342     -22.7954528
7.848                0.987988974     -22.8315239
7.85                   0.9879548     -22.8678678
7.852                0.987920564     -22.9042107
7.854                0.987886267     -22.9405524
7.856                0.987851908     -22.9768932
7.858                0.987817788     -23.0135228
7.86                 0.987783645     -23.0501499
7.862                0.987749477     -23.0867746
7.864                0.987715286     -23.1233969
7.866                0.987681381     -23.1603176
7.868                0.987647483     -23.1972347
7.87                 0.987613593     -23.2341482
7.872                 0.98757971     -23.2710581
7.874                0.987546219     -23.3082891
7.876                0.987512738     -23.3455165
7.878                0.987479269       -23.38274
7.88                  0.98744581     -23.4199599
7.882                0.987412865     -23.4575162
7.884                0.987379901     -23.4950696
7.886                0.987346919     -23.5326201
7.888                0.987313917     -23.5701677
7.89                 0.987281577      -23.608068
7.892                0.987249182     -23.6459664
7.894                0.987216731     -23.6838629
7.896                0.987184224     -23.7217575
7.898                0.987152418     -23.7600229
7.9                  0.987120544     -23.7982867
7.902                0.987088603     -23.8365488
7.904                0.987056593     -23.8748094
7.906                0.987025143     -23.9134544
7.908                 0.98699365     -23.9520968
7.91                 0.986962115     -23.9907369
7.912                0.986930537     -24.0293744
7.914                0.986899316     -24.0684187
7.916                0.986868104     -24.1074589
7.918                0.986836901     -24.1464951
7.92                 0.986805707     -24.1855273
7.922                0.986774641     -24.2249825
7.924                 0.98674363     -24.2644323
7.926                0.986712676     -24.3038767
7.928                0.986681777     -24.3433157
7.93                 0.986650861     -24.3831909
7.932                0.986620009     -24.4230605
7.934                0.986589222     -24.4629243
7.936                0.986558498     -24.5027825
7.938                0.986527677     -24.5430915
7.94                 0.986496883     -24.5833957
7.942                0.986466116      -24.623695
7.944                0.986435375     -24.6639897
7.946                0.986404535     -24.7047453
7.948                0.986373667     -24.7454975
7.95                  0.98634277     -24.7862463
7.952                0.986311844     -24.8269916
7.954                0.986280751     -24.8682135
7.956                0.986249595     -24.9094328
7.958                0.986218377     -24.9506494
7.96                 0.986187097     -24.9918635
7.962                0.986155405     -25.0335607
7.964                0.986123664     -25.0752547
7.966                0.986091873     -25.1169456
7.968                0.986060031     -25.1586334
7.97                  0.98602745     -25.2008057
7.972                0.985994875     -25.2429732
7.974                0.985962304     -25.2851358
7.976                0.985929739     -25.3272937
7.978                0.985896141     -25.3699507
7.98                 0.985862609     -25.4126012
7.982                0.985829144     -25.4552451
7.984                0.985795745     -25.4978825
7.986                0.985761031     -25.5410201
7.988                0.985726401     -25.5841506
7.99                 0.985691853      -25.627274
7.992                0.985657389     -25.6703904
7.994                0.985621562     -25.7140137
7.996                0.985585773     -25.7576308
7.998                0.985550023     -25.8012416
8                    0.985514311     -25.8448463
8.002                0.985477347      -25.888951
8.004                0.985440346     -25.9330512
8.006                0.985403309     -25.9771468
8.008                0.985366236      -26.021238
8.01                 0.985327964     -26.0658394
8.012                0.985289596      -26.110438
8.014                0.985251129     -26.1550337
8.016                0.985212565     -26.1996265
8.018                0.985172806     -26.2447206
8.02                 0.985132939     -26.2898119
8.022                0.985092961     -26.3349004
8.024                0.985052874     -26.3799862
8.026                0.985011348      -26.425583
8.028                0.984969765     -26.4711752
8.03                 0.984928126     -26.5167625
8.032                0.984886431     -26.5623452
8.034                0.984843089     -26.6084362
8.036                0.984799778     -26.6545195
8.038                0.984756499     -26.7005953
8.04                 0.984713252     -26.7466636
8.042                0.984668097     -26.7932443
8.044                 0.98462302      -26.839816
8.046                0.984578021     -26.8863787
8.048                0.984533099     -26.9329323
8.05                 0.984486376     -26.9800076
8.052                0.984439689     -27.0270745
8.054                0.984393041      -27.074133
8.056                 0.98434643     -27.1211831
8.058                0.984298312     -27.1687443
8.06                 0.984250138     -27.2162991
8.062                0.984201908     -27.2638477
8.064                0.984153622     -27.3113901
8.066                0.984104161     -27.3594494
8.068                 0.98405455     -27.4075054
8.07                 0.984004788     -27.4555581
8.072                0.983954876     -27.5036075
8.074                0.983904052     -27.5521652
8.076                0.983853029      -27.600721
8.078                0.983801804     -27.6492749
8.08                 0.983750378     -27.6978269
8.082                0.983698064     -27.7469054
8.084                0.983645592     -27.7959796
8.086                0.983592963     -27.8450495
8.088                0.983540177     -27.8941152
8.09                 0.983486304     -27.9437225
8.092                0.983432412     -27.9933204
8.094                0.983378499      -28.042909
8.096                0.983324567     -28.0924882
8.098                0.983269232     -28.1426177
8.1                  0.983213999      -28.192734
8.102                0.983158866     -28.2428373
8.104                0.983103834     -28.2929274
8.106                0.983047446     -28.3435869
8.108                0.982991145     -28.3942331
8.11                 0.982934931     -28.4448661
8.112                0.982878806     -28.4954858
8.114                 0.98282164     -28.5466915
8.116                 0.98276444     -28.5978866
8.118                0.982707206     -28.6490709
8.12                 0.982649938     -28.7002445
8.122                0.982592156     -28.7519997
8.124                0.982534196     -28.8037489
8.126                0.982476059      -28.855492
8.128                0.982417744     -28.9072293
8.13                 0.982359376     -28.9595647
8.132                0.982300717     -29.0118986
8.134                0.982241767      -29.064231
8.136                0.982182522     -29.1165619
8.138                0.982123378     -29.1694914
8.14                 0.982063953     -29.2224173
8.142                0.982004246     -29.2753399
8.144                0.981944255     -29.3282591
8.146                0.981883986     -29.3818186
8.148                0.981823658     -29.4353656
8.15                  0.98176327        -29.4889
8.152                0.981702822      -29.542422
8.154                0.981641259     -29.5966314
8.156                0.981579937     -29.6508198
8.158                0.981518856     -29.7049871
8.16                 0.981458016     -29.7591332
8.162                0.981395575     -29.8139863
8.164                0.981333445     -29.8688169
8.166                0.981271628     -29.9236249
8.168                0.981210124     -29.9784101
8.17                 0.981147178     -30.0339289
8.172                0.981084345     -30.0894287
8.174                0.981021624     -30.1449093
8.176                0.980959018     -30.2003708
8.178                0.980895694     -30.2565609
8.18                 0.980832228     -30.3127393
8.182                0.980768619     -30.3689059
8.184                0.980704866     -30.4250608
8.186                0.980641066     -30.4819435
8.188                0.980576876     -30.5388261
8.19                 0.980512292     -30.5957087
8.192                0.980447309      -30.652591
8.194                0.980382677     -30.7102065
8.196                0.980317519     -30.7678256
8.198                0.980251831     -30.8254481
8.2                  0.980185605     -30.8830739