! TOUCHSTONE file generated by CST DESIGN STUDIO
! Date and time: Mon Feb 10 16:52:14 2025
! Project name: C:\Work\MatlabApps\UnitCellType2OptimizationMatlab\CST\unitcell.cst
! Tree item: Tasks\Sweep1\SPara1\S-Parameters
! Header version: 2024
! Port assignment regex: !\s*Touchstone port\s*([0-9]+)\s*=\s*(CST MWS port|CST DES external port|CST DES block port)\s*(.+)\s* \(\"(.*)\"\)(\s*mode\s*([0-9]+))?.*
! Touchstone port assignment:
! Touchstone port 1 = CST DES external port 1 ("")
# GHz S MA R 50
7                    0.995314084     -14.3254671
7.002                0.995296534     -14.3462518
7.004                0.995278957     -14.3670393
7.006                0.995261353     -14.3878295
7.008                0.995243723     -14.4086225
7.01                 0.995225389     -14.4294401
7.012                0.995207023     -14.4502604
7.014                0.995188624     -14.4710835
7.016                0.995170193     -14.4919093
7.018                0.995151317     -14.5127528
7.02                 0.995132405     -14.5335989
7.022                0.995113456     -14.5544477
7.024                0.995094471      -14.575299
7.026                0.995075342     -14.5961698
7.028                0.995056175     -14.6170432
7.03                 0.995036968     -14.6379191
7.032                0.995017723     -14.6587976
7.034                 0.99499865     -14.6796964
7.036                0.994979535     -14.7005976
7.038                0.994960379     -14.7215013
7.04                 0.994941182     -14.7424075
7.042                0.994922451     -14.7633396
7.044                0.994903678      -14.784274
7.046                 0.99488486     -14.8052106
7.048                0.994865999     -14.8261495
7.05                 0.994847848      -14.847123
7.052                0.994829653     -14.8680986
7.054                0.994811416     -14.8890762
7.056                0.994793135      -14.910056
7.058                0.994775772     -14.9310871
7.06                 0.994758368     -14.9521202
7.062                0.994740923     -14.9731553
7.064                0.994723436     -14.9941924
7.066                0.994707022     -15.0152877
7.068                0.994690568     -15.0363848
7.07                 0.994674073     -15.0574837
7.072                0.994657537     -15.0785845
7.074                0.994642217     -15.0997594
7.076                0.994626858      -15.120936
7.078                0.994611461     -15.1421142
7.08                 0.994596026      -15.163294
7.082                0.994581923     -15.1845583
7.084                0.994567787      -15.205824
7.086                0.994553616     -15.2270913
7.088                0.994539413       -15.24836
7.09                 0.994526655     -15.2697275
7.092                0.994513868     -15.2910965
7.094                0.994501052     -15.3124669
7.096                0.994488206     -15.3338387
7.098                0.994476861      -15.355331
7.1                  0.994465491     -15.3768247
7.102                0.994454095     -15.3983197
7.104                0.994442674      -15.419816
7.106                0.994432751     -15.4414476
7.108                0.994422808     -15.4630803
7.11                 0.994412844     -15.4847143
7.112                0.994402858     -15.5063494
7.114                0.994394316     -15.5281388
7.116                0.994385758     -15.5499294
7.118                0.994377185     -15.5717212
7.12                 0.994368596     -15.5935142
7.122                0.994361323      -15.615478
7.124                0.994354039     -15.6374431
7.126                0.994346745     -15.6594093
7.128                0.994339439     -15.6813767
7.13                  0.99433329     -15.7035272
7.132                0.994327133     -15.7256789
7.134                 0.99432097     -15.7478316
7.136                0.994314799     -15.7699854
7.138                0.994309616     -15.7923376
7.14                 0.994304431      -15.814691
7.142                0.994299245     -15.8370454
7.144                0.994294057      -15.859401
7.146                 0.99428971     -15.8819605
7.148                0.994285366     -15.9045213
7.15                 0.994281026     -15.9270833
7.152                0.994276688     -15.9496465
7.154                0.994272982     -15.9724254
7.156                0.994269282     -15.9952055
7.158                0.994265587      -16.017987
7.16                 0.994261898     -16.0407698
7.162                0.994258645     -16.0637774
7.164                  0.9942554     -16.0867863
7.166                0.994252163     -16.1097966
7.168                0.994248934     -16.1328082
7.17                 0.994245895     -16.1560544
7.172                0.994242867     -16.1793022
7.174                 0.99423985     -16.2025514
7.176                0.994236845     -16.2258021
7.178                0.994233761     -16.2492895
7.18                  0.99423069     -16.2727785
7.182                0.994227632     -16.2962692
7.184                0.994224587     -16.3197616
7.186                 0.99422117     -16.3434929
7.188                0.994217766      -16.367226
7.19                 0.994214376     -16.3909609
7.192                0.994210999     -16.4146976
7.194                0.994207004     -16.4386694
7.196                0.994203024     -16.4626432
7.198                0.994199058      -16.486619
7.2                  0.994195107     -16.5105966
7.202                0.994190292     -16.5348042
7.204                0.994185493      -16.559014
7.206                 0.99418071     -16.5832259
7.208                0.994175942     -16.6074401
7.21                  0.99417015     -16.6318783
7.212                0.994164371      -16.656319
7.214                0.994158608     -16.6807621
7.216                0.994152858     -16.7052078
7.218                0.994145929     -16.7298727
7.22                 0.994139012     -16.7545402
7.222                0.994132108     -16.7792105
7.224                0.994125217     -16.8038833
7.226                 0.99411699     -16.8287665
7.228                0.994108774     -16.8536526
7.23                  0.99410057     -16.8785416
7.232                0.994092377     -16.9034336
7.234                0.994082727     -16.9285261
7.236                0.994073086     -16.9536219
7.238                0.994063454     -16.9787209
7.24                 0.994053832     -17.0038231
7.242                0.994042638     -17.0291167
7.244                0.994031449     -17.0544138
7.246                0.994020264     -17.0797143
7.248                0.994009084     -17.1050183
7.25                 0.993996237     -17.1305034
7.252                 0.99398339     -17.1559922
7.254                0.993970541     -17.1814846
7.256                0.993957691     -17.2069805
7.258                0.993943198      -17.232642
7.26                 0.993928698     -17.2583074
7.262                0.993914193     -17.2839765
7.264                0.993899682     -17.3096495
7.266                 0.99388356     -17.3354734
7.268                0.993867426     -17.3613014
7.27                  0.99385128     -17.3871333
7.272                0.993835122     -17.4129694
7.274                 0.99381748      -17.438949
7.276                 0.99379982     -17.4649328
7.278                0.993782142     -17.4909208
7.28                 0.993764446     -17.5169129
7.282                0.993745386     -17.5430379
7.284                0.993726301     -17.5691672
7.286                0.993707194     -17.5953007
7.288                0.993688063     -17.6214385
7.29                 0.993667673     -17.6477067
7.292                0.993647253     -17.6739793
7.294                0.993626805     -17.7002562
7.296                0.993606328     -17.7265375
7.298                0.993584754      -17.752936
7.3                  0.993563144     -17.7793389
7.302                0.993541497     -17.8057461
7.304                0.993519813     -17.8321577
7.306                0.993497187     -17.8586848
7.308                0.993474517     -17.8852162
7.31                 0.993451803     -17.9117517
7.312                0.993429043     -17.9382914
7.314                0.993405529     -17.9649393
7.316                0.993381965     -17.9915912
7.318                0.993358351     -18.0182473
7.32                 0.993334687     -18.0449074
7.322                0.993310513     -18.0716751
7.324                0.993286285     -18.0984468
7.326                0.993262002     -18.1252226
7.328                0.993237666     -18.1520024
7.33                 0.993213079     -18.1788857
7.332                0.993188434     -18.2057729
7.334                0.993163732      -18.232664
7.336                0.993138973     -18.2595591
7.338                0.993114244     -18.2865626
7.34                 0.993089456     -18.3135699
7.342                0.993064608      -18.340581
7.344                0.993039702      -18.367596
7.346                0.993015058     -18.3947269
7.348                0.992990355     -18.4218616
7.35                 0.992965593         -18.449
7.352                0.992940772     -18.4761421
7.354                0.992916396     -18.5034089
7.356                0.992891961     -18.5306792
7.358                0.992867464      -18.557953
7.36                 0.992842907     -18.5852304
7.362                0.992818962     -18.6126425
7.364                0.992794954     -18.6400579
7.366                0.992770885     -18.6674765
7.368                0.992746754     -18.6948984
7.37                 0.992723397     -18.7224634
7.372                0.992699981     -18.7500314
7.374                0.992676504     -18.7776025
7.376                0.992652967     -18.8051766
7.378                0.992630355     -18.8329061
7.38                 0.992607686     -18.8606386
7.382                0.992584961     -18.8883741
7.384                0.992562179     -18.9161126
7.386                0.992540442      -18.944019
7.388                0.992518652     -18.9719283
7.39                 0.992496809     -18.9998406
7.392                0.992474914     -19.0277558
7.394                0.992454199     -19.0558526
7.396                0.992433437     -19.0839522
7.398                0.992412627     -19.1120548
7.4                  0.992391769     -19.1401603
7.402                0.992372153     -19.1684674
7.404                0.992352496     -19.1967773
7.406                0.992332797     -19.2250902
7.408                0.992313057      -19.253406
7.41                 0.992294581     -19.2819389
7.412                0.992276069     -19.3104746
7.414                 0.99225752     -19.3390133
7.416                0.992238935     -19.3675549
7.418                0.992221534      -19.396335
7.42                   0.9922041     -19.4251178
7.422                0.992186633     -19.4539035
7.424                0.992169132     -19.4826919
7.426                0.992152754     -19.5117278
7.428                0.992136347     -19.5407664
7.43                 0.992119911     -19.5698078
7.432                0.992103445     -19.5988518
7.434                0.992087971     -19.6281647
7.436                0.992072475     -19.6574805
7.438                0.992056956     -19.6867992
7.44                 0.992041413     -19.7161207
7.442                0.992026765     -19.7457201
7.444                  0.9920121     -19.7753226
7.446                0.991997417     -19.8049282
7.448                0.991982717     -19.8345369
7.45                 0.991968784     -19.8644385
7.452                 0.99195484     -19.8943435
7.454                0.991940884     -19.9242518
7.456                0.991926916     -19.9541634
7.458                0.991913545     -19.9843785
7.46                 0.991900169     -20.0145971
7.462                0.991886788     -20.0448193
7.464                0.991873401      -20.075045
7.466                 0.99186039     -20.1055909
7.468                0.991847378     -20.1361407
7.47                 0.991834365     -20.1666943
7.472                0.991821351     -20.1972517
7.474                0.991808464     -20.2281384
7.476                0.991795577      -20.259029
7.478                0.991782691     -20.2899236
7.48                 0.991769804     -20.3208223
7.482                0.991756789     -20.3520547
7.484                0.991743774     -20.3832912
7.486                 0.99173076     -20.4145319
7.488                0.991717746     -20.4457767
7.49                  0.99170431     -20.4773634
7.492                0.991690877     -20.5089546
7.494                0.991677447     -20.5405501
7.496                0.991664019     -20.5721501
7.498                0.991649942     -20.6040848
7.5                   0.99163587     -20.6360243
7.502                0.991621801     -20.6679688
7.504                0.991607737     -20.6999181
7.506                0.991592813     -20.7322076
7.508                0.991577894     -20.7645025
7.51                 0.991562979     -20.7968026
7.512                0.991548069     -20.8291081
7.514                0.991532132     -20.8617498
7.516                  0.9915162     -20.8943972
7.518                0.991500274     -20.9270504
7.52                 0.991484354     -20.9597093
7.522                  0.9914672     -20.9927035
7.524                0.991450052     -21.0257038
7.526                0.991432908     -21.0587102
7.528                 0.99141577     -21.0917229
7.53                 0.991397198     -21.1250664
7.532                0.991378625     -21.1584164
7.534                0.991360051     -21.1917729
7.536                0.991341476     -21.2251359
7.538                0.991321279      -21.258825
7.54                 0.991301071     -21.2925206
7.542                0.991280852     -21.3262228
7.544                0.991260623     -21.3599317
7.546                0.991238632     -21.3939611
7.548                0.991216622     -21.4279974
7.55                 0.991194594     -21.4620405
7.552                0.991172547     -21.4960903
7.554                 0.99114865     -21.5304457
7.556                0.991124729     -21.5648082
7.558                0.991100781     -21.5991778
7.56                 0.991076809     -21.6335545
7.562                 0.99105095     -21.6682253
7.564                 0.99102506     -21.7029036
7.566                0.990999137     -21.7375893
7.568                0.990973183     -21.7722826
7.57                 0.990945382     -21.8072591
7.572                0.990917543     -21.8422433
7.574                0.990889667     -21.8772353
7.576                0.990861753     -21.9122351
7.578                0.990832034     -21.9475155
7.58                 0.990802271     -21.9828039
7.582                0.990772463     -22.0181004
7.584                0.990742612     -22.0534049
7.586                0.990711054      -22.088977
7.588                0.990679441     -22.1245572
7.59                 0.990647772     -22.1601455
7.592                0.990616047     -22.1957418
7.594                0.990582713     -22.2316029
7.596                0.990549309     -22.2674717
7.598                0.990515833     -22.3033484
7.6                  0.990482286     -22.3392329
7.602                0.990447236     -22.3753744
7.604                0.990412101     -22.4115234
7.606                0.990376883     -22.4476799
7.608                0.990341581      -22.483844
7.61                 0.990304955     -22.5202572
7.612                0.990268237     -22.5566778
7.614                0.990231428     -22.5931058
7.616                0.990194527     -22.6295414
7.618                0.990156494     -22.6662236
7.62                 0.990118365     -22.7029134
7.622                 0.99008014     -22.7396107
7.624                0.990041818     -22.7763157
7.626                0.990002653     -22.8132629
7.628                0.989963389     -22.8502179
7.63                 0.989924026     -22.8871804
7.632                0.989884565     -22.9241507
7.634                 0.98984449     -22.9613622
7.636                0.989804315     -22.9985814
7.638                0.989764041     -23.0358083
7.64                 0.989723666     -23.0730428
7.642                0.989682983      -23.110528
7.644                0.989642196     -23.1480206
7.646                0.989601304     -23.1855208
7.648                0.989560309     -23.2230286
7.65                 0.989519256      -23.260792
7.652                0.989478092     -23.2985626
7.654                0.989436816     -23.3363402
7.656                0.989395427     -23.3741248
7.658                0.989354166     -23.4121786
7.66                 0.989312787     -23.4502389
7.662                 0.98927129     -23.4883058
7.664                0.989229675     -23.5263792
7.666                0.989188425     -23.5647312
7.668                0.989147059     -23.6030896
7.67                 0.989105575     -23.6414543
7.672                0.989063975     -23.6798255
7.674                0.989022952     -23.7184875
7.676                0.988981818     -23.7571562
7.678                0.988940573     -23.7958313
7.68                 0.988899216     -23.8345131
7.682                0.988858626     -23.8734935
7.684                0.988817933     -23.9124808
7.686                0.988777137     -23.9514749
7.688                0.988736238     -23.9904758
7.69                 0.988696327     -24.0297994
7.692                0.988656323     -24.0691302
7.694                0.988616225      -24.108468
7.696                0.988576034     -24.1478129
7.698                0.988536972     -24.1875007
7.7                  0.988497822     -24.2271957
7.702                0.988458586     -24.2668979
7.704                0.988419261     -24.3066073
7.706                0.988381157     -24.3466806
7.708                0.988342965     -24.3867609
7.71                 0.988304687     -24.4268482
7.712                0.988266322     -24.4669424
7.714                0.988229213     -24.5074282
7.716                0.988192016     -24.5479207
7.718                0.988154733     -24.5884198
7.72                 0.988117362     -24.6289255
7.722                0.988081212     -24.6698412
7.724                 0.98804498     -24.7107636
7.726                0.988008667     -24.7516926
7.728                0.987972271     -24.7926282
7.73                 0.987937034      -24.834005
7.732                0.987901727      -24.875389
7.734                0.987866348     -24.9167802
7.736                0.987830897     -24.9581785
7.738                0.987796499     -25.0000294
7.74                 0.987762044     -25.0418882
7.742                 0.98772753     -25.0837548
7.744                0.987692959     -25.1256294
7.746                0.987659337     -25.1679836
7.748                0.987625672     -25.2103465
7.75                 0.987591962     -25.2527179
7.752                0.987558209      -25.295098
7.754                0.987525263      -25.337975
7.756                0.987492283     -25.3808612
7.758                0.987459268     -25.4237566
7.76                 0.987426221     -25.4666611
7.762                0.987393749     -25.5100909
7.764                0.987361243       -25.55353
7.766                0.987328705     -25.5969787
7.768                0.987296134     -25.6404367
7.77                 0.987263868     -25.6844394
7.772                0.987231563     -25.7284515
7.774                 0.98719922      -25.772473
7.776                0.987166839      -25.816504
7.778                0.987134452     -25.8611035
7.78                 0.987102024     -25.9057127
7.782                0.987069555     -25.9503314
7.784                0.987037044     -25.9949597
7.786                0.987004197     -26.0401648
7.788                0.986971311     -26.0853801
7.79                 0.986938388     -26.1306058
7.792                0.986905426     -26.1758417
7.794                0.986871742     -26.2216596
7.796                0.986838027     -26.2674888
7.798                0.986804282     -26.3133294
7.8                  0.986770508     -26.3591813
7.802                0.986735731     -26.4056293
7.804                0.986700934     -26.4520899
7.806                0.986666117     -26.4985631
7.808                 0.98663128     -26.5450487
7.81                 0.986595071     -26.5921315
7.812                0.986558846     -26.6392278
7.814                0.986522605     -26.6863376
7.816                0.986486348     -26.7334609
7.818                0.986448474      -26.781186
7.82                 0.986410575     -26.8289252
7.822                0.986372651     -26.8766783
7.824                0.986334702     -26.9244455
7.826                 0.98629481     -26.9728189
7.828                0.986254871     -27.0212063
7.83                 0.986214885     -27.0696076
7.832                0.986174851      -27.118023
7.834                0.986132653     -27.1670487
7.836                0.986090384     -27.2160883
7.838                0.986048044     -27.2651417
7.84                 0.986005633      -27.314209
7.842                 0.98596074     -27.3638843
7.844                0.985915762      -27.413574
7.846                0.985870696     -27.4632778
7.848                0.985825545     -27.5129958
7.85                 0.985777732     -27.5633113
7.852                0.985729828      -27.613642
7.854                0.985681835     -27.6639879
7.856                0.985633751      -27.714349
7.858                 0.98558281     -27.7652997
7.86                 0.985531782     -27.8162668
7.862                0.985480665     -27.8672503
7.864                 0.98542946     -27.9182504
7.866                0.985375286     -27.9698222
7.868                0.985321021     -28.0214115
7.87                 0.985266666     -28.0730183
7.872                0.985212221     -28.1246426
7.874                0.985154799     -28.1768373
7.876                0.985097268     -28.2290498
7.878                0.985039628       -28.28128
7.88                  0.98498188     -28.3335279
7.882                 0.98492118       -28.38634
7.884                0.984860336     -28.4391692
7.886                0.984799346     -28.4920153
7.888                0.984738212     -28.5448785
7.89                 0.984674249     -28.5983013
7.892                0.984610102       -28.65174
7.894                 0.98454577     -28.7051947
7.896                0.984481253     -28.7586654
7.898                 0.98441405     -28.8126933
7.9                  0.984346636     -28.8667366
7.902                0.984279011     -28.9207954
7.904                0.984211173     -28.9748698
7.906                0.984140767     -29.0294884
7.908                0.984070143      -29.084123
7.91                 0.983999303     -29.1387738
7.912                0.983928244     -29.1934405
7.914                0.983854798     -29.2486494
7.916                0.983781145     -29.3038757
7.918                0.983707285     -29.3591194
7.92                 0.983633217     -29.4143804
7.922                0.983557027     -29.4701759
7.924                 0.98348064       -29.52599
7.926                0.983404056     -29.5818227
7.928                0.983327275      -29.637674
7.93                 0.983248703     -29.6940565
7.932                0.983169927     -29.7504576
7.934                0.983090945     -29.8068775
7.936                 0.98301176      -29.863316
7.938                0.982931142     -29.9202967
7.94                  0.98285029     -29.9772948
7.942                0.982769203     -30.0343103
7.944                0.982687882     -30.0913433
7.946                0.982605572     -30.1489337
7.948                0.982522991     -30.2065397
7.95                 0.982440138     -30.2641612
7.952                0.982357012     -30.3217984
7.954                0.982273305     -30.3800192
7.956                0.982189304     -30.4382546
7.958                0.982105008     -30.4965045
7.96                 0.982020416     -30.5547688
7.962                0.981935533     -30.6136321
7.964                0.981850361     -30.6725102
7.966                  0.9817649     -30.7314033
7.968                 0.98167915     -30.7903112
7.97                 0.981593391     -30.8498246
7.972                0.981507379     -30.9093548
7.974                0.981421111     -30.9689018
7.976                0.981334587     -31.0284657
7.978                0.981248404      -31.088663
7.98                 0.981162006     -31.1488794
7.982                0.981075393      -31.209115
7.984                0.980988565     -31.2693699
7.986                0.980902284     -31.3302787
7.988                0.980815804     -31.3912077
7.99                 0.980729127      -31.452157
7.992                0.980642253     -31.5131266
7.994                0.980556257     -31.5747936
7.996                0.980470048     -31.6364798
7.998                0.980383627     -31.6981853
8                    0.980296994       -31.75991
8.002                0.980211537     -31.8223685
8.004                0.980125834     -31.8848442
8.006                0.980039886     -31.9473371
8.008                0.979953691     -32.0098472
8.01                 0.979868848     -32.0731559
8.012                0.979783732     -32.1364805
8.014                0.979698342      -32.199821
8.016                0.979612676     -32.2631773
8.018                0.979528481     -32.3273659
8.02                 0.979444017     -32.3915707
8.022                0.979359284     -32.4557918
8.024                 0.97927428     -32.5200291
8.026                0.979190545     -32.5851503
8.028                0.979106593     -32.6502907
8.03                 0.979022423     -32.7154503
8.032                0.978938034     -32.7806291
8.034                0.978854782     -32.8467143
8.036                0.978771385     -32.9128229
8.038                0.978687845     -32.9789552
8.04                 0.978604161      -33.045111
8.042                0.978521221     -33.1122123
8.044                 0.97843818     -33.1793402
8.046                0.978355039     -33.2464948
8.048                0.978271801     -33.3136761
8.05                  0.97818917     -33.3818597
8.052                0.978106428     -33.4500698
8.054                0.978023577     -33.5183065
8.056                0.977940618       -33.58657
8.058                0.977858069     -33.6558762
8.06                 0.977775359     -33.7252067
8.062                0.977692488     -33.7945615
8.064                0.977609455     -33.8639406
8.066                0.977526567     -33.9344314
8.068                 0.97744345     -34.0049445
8.07                 0.977360103     -34.0754798
8.072                0.977276525     -34.1460376
8.074                0.977192767     -34.2177419
8.076                 0.97710874     -34.2894681
8.078                0.977024444     -34.3612161
8.08                 0.976939876     -34.4329859
8.082                0.976854574      -34.505954
8.084                0.976769047     -34.5789471
8.086                0.976683293     -34.6519651
8.088                0.976597312     -34.7250081
8.09                 0.976509777     -34.7992701
8.092                0.976422127     -34.8735643
8.094                0.976334363     -34.9478907
8.096                0.976246486     -35.0222496
8.098                0.976156177     -35.0978219
8.1                  0.976065835     -35.1734333
8.102                0.975975464     -35.2490838
8.104                0.975885068     -35.3247736
8.106                0.975791633     -35.4017038
8.108                0.975698147     -35.4786743
8.11                 0.975604612      -35.555685
8.112                0.975511033     -35.6327362
8.114                0.975413963     -35.7110732
8.116                0.975316737     -35.7894467
8.118                0.975219357     -35.8678565
8.12                 0.975121823     -35.9463028
8.122                0.975020563     -36.0260575
8.124                 0.97491899     -36.1058438
8.126                0.974817103     -36.1856617
8.128                  0.9747149     -36.2655112
8.13                 0.974608786     -36.3467199
8.132                0.974502206     -36.4279571
8.134                0.974395157     -36.5092223
8.136                0.974287635     -36.5905155
8.138                0.974175788     -36.6731627
8.14                 0.974063462     -36.7558391
8.142                0.973950655     -36.8385445
8.144                0.973837363     -36.9212788
8.146                0.973718909     -37.0053709
8.148                 0.97360016     -37.0895028
8.15                 0.973481116     -37.1736746
8.152                0.973361776     -37.2578862
8.154                0.973236142     -37.3434265
8.156                0.973110418     -37.4290227
8.158                 0.97298461     -37.5146746
8.16                 0.972858725     -37.6003827
8.162                0.972725958     -37.6873716
8.164                0.972593101      -37.774421
8.166                0.972460164     -37.8615312
8.168                0.972327155     -37.9487024
8.17                 0.972187175     -38.0371847
8.172                0.972046918     -38.1257177
8.174                0.971906385     -38.2143015
8.176                0.971765579     -38.3029364
8.178                0.971618426      -38.392903
8.18                 0.971470704     -38.4829078
8.182                0.971322412     -38.5729507
8.184                0.971173546     -38.6630315
8.186                0.971019123     -38.7544926
8.188                0.970863752     -38.8459809
8.19                 0.970707427     -38.9374961
8.192                0.970550141     -39.0290374
8.194                0.970388015     -39.1220013
8.196                 0.97022475     -39.2149854
8.198                 0.97006034     -39.3079887
8.2                  0.969894776     -39.4010104