! TOUCHSTONE file generated by CST DESIGN STUDIO
! Date and time: Mon Feb 10 16:54:09 2025
! Project name: C:\Work\MatlabApps\UnitCellType2OptimizationMatlab\CST\unitcell.cst
! Tree item: Tasks\Sweep1\SPara1\S-Parameters
! Header version: 2024
! Port assignment regex: !\s*Touchstone port\s*([0-9]+)\s*=\s*(CST MWS port|CST DES external port|CST DES block port)\s*(.+)\s* \(\"(.*)\"\)(\s*mode\s*([0-9]+))?.*
! Touchstone port assignment:
! Touchstone port 1 = CST DES external port 1 ("")
# GHz S MA R 50
7                    0.991616653     -8.04613199
7.002                 0.99161777     -8.06900236
7.004                0.991618902     -8.09185297
7.006                0.991620047     -8.11468392
7.008                0.991621206     -8.13749534
7.01                 0.991619303     -8.16022879
7.012                0.991616948     -8.18293554
7.014                0.991614147      -8.2056157
7.016                0.991610904     -8.22826938
7.018                0.991604772     -8.25086287
7.02                 0.991598663     -8.27341238
7.022                0.991592578     -8.29591838
7.024                0.991586521     -8.31838135
7.026                0.991576612     -8.34077254
7.028                0.991567092     -8.36313337
7.03                 0.991557959     -8.38546422
7.032                0.991549211     -8.40776544
7.034                0.991537278     -8.42993325
7.036                0.991525167     -8.45208638
7.038                0.991512879     -8.47422494
7.04                 0.991500415     -8.49634902
7.042                0.991486526     -8.51832273
7.044                0.991472155     -8.54027051
7.046                0.991457307     -8.56219273
7.048                0.991441984      -8.5840898
7.05                 0.991425375     -8.60585652
7.052                0.991408799        -8.62759
7.054                0.991392254     -8.64929051
7.056                0.991375738     -8.67095831
7.058                0.991357462     -8.69248454
7.06                 0.991339317      -8.7139933
7.062                0.991321301     -8.73548467
7.064                0.991303413     -8.75695876
7.066                0.991284686     -8.77826413
7.068                0.991265608     -8.79955618
7.07                 0.991246179     -8.82083496
7.072                0.991226403     -8.84210052
7.074                 0.99120665     -8.86321287
7.076                0.991186681     -8.88429704
7.078                  0.9911665     -8.90535326
7.08                 0.991146108     -8.92638175
7.082                0.991125246     -8.94727291
7.084                0.991104601     -8.96813945
7.086                0.991084173     -8.98898168
7.088                0.991063961     -9.00979988
7.09                 0.991043463     -9.03045386
7.092                0.991022898     -9.05109806
7.094                0.991002268     -9.07173256
7.096                0.990981572      -9.0923574
7.098                 0.99096203     -9.11280972
7.1                  0.990942034     -9.13324651
7.102                0.990921586     -9.15366804
7.104                0.990900688     -9.17407457
7.106                 0.99088149      -9.1943454
7.108                0.990862175     -9.21458928
7.11                 0.990842743     -9.23480646
7.112                0.990823192     -9.25499721
7.114                0.990804838     -9.27507048
7.116                0.990786647     -9.29512654
7.118                0.990768617     -9.31516548
7.12                 0.990750746     -9.33518736
7.122                0.990734535     -9.35508052
7.124                0.990718096     -9.37496725
7.126                0.990701428     -9.39484757
7.128                0.990684535     -9.41472149
7.13                 0.990670293     -9.43448246
7.132                0.990655694     -9.45422758
7.134                0.990640741     -9.47395693
7.136                0.990625435     -9.49367058
7.138                0.990612608     -9.51330734
7.14                 0.990599805     -9.53292487
7.142                0.990587025     -9.55252341
7.144                 0.99057427     -9.57210318
7.146                0.990563658     -9.59160856
7.148                0.990553043      -9.6111063
7.15                 0.990542424     -9.63059647
7.152                0.990531803     -9.65007912
7.154                0.990524112     -9.66948577
7.156                 0.99051607     -9.68888398
7.158                 0.99050768     -9.70827388
7.16                 0.990498943     -9.72765558
7.162                0.990493648     -9.74700069
7.164                0.990488172     -9.76632506
7.166                0.990482516      -9.7856289
7.168                0.990476681     -9.80491245
7.17                 0.990473712     -9.82419842
7.172                 0.99047092     -9.84346679
7.174                0.990468301     -9.86271762
7.176                0.990465855     -9.88195099
7.178                0.990466233     -9.90118954
7.18                 0.990466536     -9.92042316
7.182                0.990466765     -9.93965188
7.184                 0.99046692     -9.95887572
7.186                0.990470683      -9.9781191
7.188                0.990474071     -9.99735404
7.19                 0.990477088     -10.0165805
7.192                0.990479734     -10.0357986
7.194                0.990485992     -10.0550741
7.196                0.990492129     -10.0743341
7.198                0.990498148     -10.0935788
7.2                  0.990504051     -10.1128084
7.202                0.990512837     -10.1321127
7.204                0.990521665      -10.151409
7.206                0.990530534     -10.1706973
7.208                0.990539446     -10.1899777
7.21                 0.990551226     -10.2093369
7.212                0.990562816     -10.2286913
7.214                0.990574218      -10.248041
7.216                0.990585431     -10.2673859
7.218                0.990599814     -10.2868341
7.22                 0.990614043     -10.3062673
7.222                0.990628121     -10.3256856
7.224                0.990642048     -10.3450893
7.226                 0.99065848     -10.3646354
7.228                0.990675101     -10.3841642
7.23                 0.990691911     -10.4036759
7.232                0.990708909     -10.4231705
7.234                0.990727921     -10.4428173
7.236                0.990747016     -10.4624578
7.238                0.990766193      -10.482092
7.24                 0.990785451       -10.50172
7.242                0.990807223     -10.5215031
7.244                0.990828697      -10.541281
7.246                0.990849876     -10.5610536
7.248                0.990870762     -10.5808211
7.25                 0.990894305     -10.6007719
7.252                0.990917644     -10.6207094
7.254                 0.99094078     -10.6406338
7.256                0.990963717     -10.6605451
7.258                0.990988449     -10.6806564
7.26                 0.991013236     -10.7007577
7.262                0.991038078      -10.720849
7.264                0.991062978     -10.7409305
7.266                0.991089127     -10.7612065
7.268                0.991115241     -10.7814783
7.27                 0.991141322      -10.801746
7.272                0.991167368     -10.8220097
7.274                0.991194603     -10.8424756
7.276                0.991221755     -10.8629312
7.278                0.991248824     -10.8833765
7.28                  0.99127581     -10.9038116
7.282                0.991303464     -10.9244718
7.284                0.991331305     -10.9451162
7.286                0.991359331      -10.965745
7.288                0.991387542     -10.9863583
7.29                 0.991415778     -11.0072007
7.292                0.991444212     -11.0280349
7.294                0.991472843     -11.0488608
7.296                 0.99150167     -11.0696787
7.298                0.991530723     -11.0907198
7.3                  0.991559596     -11.1117567
7.302                0.991588289     -11.1327894
7.304                0.991616805      -11.153818
7.306                0.991645892     -11.1750769
7.308                 0.99167473     -11.1963245
7.31                 0.991703322     -11.2175607
7.312                0.991731669     -11.2387855
7.314                 0.99175986      -11.260253
7.316                0.991788071     -11.2817084
7.318                0.991816302      -11.303152
7.32                 0.991844555     -11.3245838
7.322                0.991871898      -11.346243
7.324                0.991899302      -11.367897
7.326                0.991926766     -11.3895458
7.328                0.991954289     -11.4111894
7.33                 0.991980682     -11.4330433
7.332                0.992007053       -11.45489
7.334                0.992033402     -11.4767297
7.336                 0.99205973     -11.4985624
7.338                0.992084604     -11.5206111
7.34                 0.992109632     -11.5426465
7.342                0.992134811     -11.5646686
7.344                0.992160142     -11.5866777
7.346                0.992183447     -11.6088989
7.348                0.992206999     -11.6311107
7.35                 0.992230798      -11.653313
7.352                0.992254842     -11.6755058
7.354                0.992276998     -11.6978952
7.356                0.992299087     -11.7202806
7.358                 0.99232111     -11.7426621
7.36                 0.992343068     -11.7650396
7.362                0.992363684     -11.7876047
7.364                0.992384036     -11.8101608
7.366                0.992404124     -11.8327081
7.368                0.992423951     -11.8552466
7.37                 0.992442153     -11.8779781
7.372                0.992460294     -11.9006974
7.374                0.992478377     -11.9234046
7.376                0.992496401     -11.9460999
7.378                0.992512052     -11.9689701
7.38                 0.992527779     -11.9918338
7.382                0.992543582     -12.0146912
7.384                0.992559462     -12.0375423
7.386                0.992572725     -12.0605383
7.388                0.992585997     -12.0835294
7.39                 0.992599277     -12.1065157
7.392                0.992612567      -12.129497
7.394                0.992623177     -12.1526149
7.396                0.992633885     -12.1757223
7.398                0.992644689     -12.1988193
7.4                  0.992655589     -12.2219059
7.402                0.992663452     -12.2451224
7.404                0.992671555     -12.2683291
7.406                0.992679896     -12.2915259
7.408                0.992688474     -12.3147129
7.41                 0.992694119      -12.338009
7.412                 0.99269979     -12.3613013
7.414                0.992705488     -12.3845899
7.416                0.992711213     -12.4078748
7.418                0.992714754     -12.4312517
7.42                 0.992718041     -12.4546232
7.422                0.992721075     -12.4779893
7.424                0.992723856     -12.5013498
7.426                0.992724665     -12.5248009
7.428                0.992725313      -12.548242
7.43                 0.992725799     -12.5716732
7.432                0.992726126     -12.5950946
7.434                0.992724041     -12.6185935
7.436                0.992721977     -12.6420859
7.438                0.992719935     -12.6655721
7.44                 0.992717914      -12.689052
7.442                0.992713258     -12.7125837
7.444                0.992708605     -12.7361122
7.446                0.992703953     -12.7596376
7.448                0.992699303       -12.78316
7.45                 0.992692125     -12.8067164
7.452                0.992684981     -12.8302653
7.454                0.992677872     -12.8538067
7.456                0.992670797     -12.8773407
7.458                 0.99266109     -12.9009038
7.46                 0.992651577     -12.9244574
7.462                0.992642257     -12.9480016
7.464                 0.99263313     -12.9715363
7.466                0.992621538     -12.9950877
7.468                0.992610039     -13.0186351
7.47                 0.992598632     -13.0421788
7.472                0.992587317     -13.0657185
7.474                0.992574351     -13.0892569
7.476                0.992561165     -13.1127931
7.478                 0.99254776     -13.1363274
7.48                 0.992534136     -13.1598595
7.482                0.992519556     -13.1833899
7.484                0.992504716     -13.2069143
7.486                0.992489618     -13.2304327
7.488                0.992474262     -13.2539452
7.49                 0.992457848     -13.2774543
7.492                0.992441352     -13.3009584
7.494                0.992424774     -13.3244578
7.496                0.992408116     -13.3479523
7.498                0.992390253     -13.3714269
7.5                  0.992372355        -13.3949
7.502                0.992354422     -13.4183716
7.504                0.992336454     -13.4418419
7.506                0.992317381     -13.4652857
7.508                0.992298291     -13.4887249
7.51                 0.992279184     -13.5121593
7.512                0.992260061     -13.5355891
7.514                0.992239863     -13.5589972
7.516                0.992219808     -13.5823965
7.518                0.992199896     -13.6057873
7.52                 0.992180125     -13.6291693
7.522                0.992159371     -13.6525272
7.524                0.992138759     -13.6758806
7.526                0.992118289     -13.6992293
7.528                 0.99209796     -13.7225735
7.53                 0.992077388     -13.7458842
7.532                0.992056659     -13.7691951
7.534                0.992035773      -13.792506
7.536                 0.99201473      -13.815817
7.538                0.991994389     -13.8390947
7.54                 0.991973725     -13.8623705
7.542                0.991952737     -13.8856443
7.544                0.991931428     -13.9089162
7.546                0.991911065     -13.9321694
7.548                0.991890505     -13.9554199
7.55                 0.991869748     -13.9786677
7.552                0.991848795     -14.0019129
7.554                0.991828592     -14.0251379
7.556                0.991808302     -14.0483628
7.558                0.991787927     -14.0715877
7.56                 0.991767467     -14.0948126
7.562                0.991747726     -14.1180209
7.564                0.991727946     -14.1412268
7.566                0.991708126     -14.1644305
7.568                0.991688266      -14.187632
7.57                 0.991669085     -14.2108291
7.572                0.991650023     -14.2340187
7.574                 0.99163108     -14.2572008
7.576                0.991612254     -14.2803754
7.578                0.991593996     -14.3035645
7.58                 0.991575936     -14.3267477
7.582                0.991558074     -14.3499253
7.584                0.991540408     -14.3730971
7.586                0.991523852      -14.396282
7.588                0.991507239     -14.4194672
7.59                  0.99149057     -14.4426528
7.592                0.991473844     -14.4658388
7.594                 0.99145919     -14.4890432
7.596                0.991444208     -14.5122486
7.598                  0.9914289     -14.5354547
7.6                  0.991413265     -14.5586618
7.602                0.991400124     -14.5819074
7.604                0.991386696     -14.6051524
7.606                0.991372981     -14.6283965
7.608                0.991358981     -14.6516399
7.61                 0.991347219     -14.6749356
7.612                0.991335326     -14.6982321
7.614                0.991323303     -14.7215294
7.616                 0.99131115     -14.7448274
7.618                0.991300886     -14.7681883
7.62                 0.991290596     -14.7915487
7.622                0.991280279     -14.8149088
7.624                0.991269937     -14.8382684
7.626                0.991261144     -14.8617124
7.628                0.991252492     -14.8851505
7.63                 0.991243982     -14.9085827
7.632                0.991235612      -14.932009
7.634                0.991228435     -14.9555379
7.636                0.991221534     -14.9790602
7.638                0.991214909     -15.0025759
7.64                 0.991208559      -15.026085
7.642                0.991203617     -15.0497068
7.644                0.991198757     -15.0733278
7.646                0.991193979     -15.0969481
7.648                0.991189282     -15.1205677
7.65                 0.991186818     -15.1443038
7.652                0.991184091     -15.1680418
7.654                0.991181101     -15.1917817
7.656                0.991177847     -15.2155235
7.658                0.991177399     -15.2394028
7.66                 0.991176616     -15.2632824
7.662                0.991175498     -15.2871623
7.664                0.991174046     -15.3110424
7.666                0.991175149     -15.3350773
7.668                0.991176082     -15.3591129
7.67                 0.991176846     -15.3831492
7.672                0.991177441     -15.4071862
7.674                0.991179928     -15.4313909
7.676                0.991182417      -15.455596
7.678                0.991184908     -15.4798016
7.68                 0.991187402     -15.5040078
7.682                0.991191111     -15.5283968
7.684                0.991195015     -15.5527816
7.686                0.991199113     -15.5771624
7.688                0.991203406      -15.601539
7.69                 0.991208269     -15.6261201
7.692                0.991213497     -15.6506945
7.694                0.991219091     -15.6752623
7.696                0.991225049     -15.6998233
7.698                0.991231452     -15.7245984
7.7                   0.99123809     -15.7493712
7.702                0.991244961     -15.7741416
7.704                0.991252065     -15.7989098
7.706                 0.99126028     -15.8238899
7.708                 0.99126834     -15.8488716
7.71                 0.991276247      -15.873855
7.712                0.991284001     -15.8988399
7.714                0.991293571     -15.9240477
7.716                0.991302791     -15.9492561
7.718                0.991311661     -15.9744651
7.72                 0.991320181     -15.9996747
7.722                0.991330375     -16.0251202
7.724                0.991340345     -16.0505659
7.726                 0.99135009     -16.0760117
7.728                0.991359611     -16.1014576
7.73                 0.991369996     -16.1271456
7.732                0.991380385     -16.1528341
7.734                0.991390776     -16.1785232
7.736                0.991401169     -16.2042128
7.738                0.991411496     -16.2301527
7.74                 0.991422059     -16.2560901
7.742                0.991432858     -16.2820249
7.744                0.991443894     -16.3079572
7.746                0.991454013     -16.3341475
7.748                 0.99146457     -16.3603318
7.75                 0.991475564     -16.3865103
7.752                0.991486993     -16.4126828
7.754                0.991497158      -16.439115
7.756                 0.99150769     -16.4655437
7.758                0.991518589     -16.4919688
7.76                 0.991529854     -16.5183903
7.762                 0.99154044     -16.5450672
7.764                0.991550995     -16.5717448
7.766                 0.99156152     -16.5984231
7.768                0.991572015      -16.625102
7.77                 0.991582744     -16.6520352
7.772                0.991593122     -16.6789692
7.774                 0.99160315     -16.7059039
7.776                0.991612827     -16.7328393
7.778                  0.9916229       -16.76003
7.78                 0.991632656     -16.7872205
7.782                0.991642098     -16.8144107
7.784                0.991651226     -16.8416007
7.786                0.991660062     -16.8690515
7.788                0.991668834     -16.8965026
7.79                 0.991677543     -16.9239539
7.792                0.991686187     -16.9514054
7.794                0.991693469     -16.9791085
7.796                0.991700978     -17.0068101
7.798                0.991708716     -17.0345102
7.8                   0.99171668     -17.0622087
7.802                0.991722293     -17.0901633
7.804                0.991728379     -17.1181131
7.806                0.991734937      -17.146058
7.808                0.991741967      -17.173998
7.81                 0.991746174     -17.2021886
7.812                0.991750847      -17.230375
7.814                0.991755988     -17.2585571
7.816                0.991761594     -17.2867348
7.818                0.991764868     -17.3151473
7.82                 0.991768233     -17.3435593
7.822                0.991771689      -17.371971
7.824                0.991775235     -17.4003823
7.826                0.991777605     -17.4290199
7.828                0.991779638     -17.4576586
7.83                 0.991781333     -17.4862983
7.832                 0.99178269     -17.5149391
7.834                0.991783527     -17.5437985
7.836                0.991783926     -17.5726584
7.838                0.991783887     -17.6015186
7.84                 0.991783411     -17.6303792
7.842                0.991782109     -17.6594577
7.844                0.991780595     -17.6885367
7.846                0.991778868      -17.717616
7.848                0.991776928     -17.7466956
7.85                 0.991773113     -17.7759856
7.852                0.991769443     -17.8052746
7.854                0.991765918     -17.8345626
7.856                0.991762538     -17.8638496
7.858                0.991756187     -17.8933392
7.86                 0.991750308     -17.9228247
7.862                0.991744898     -17.9523061
7.864                0.991739958     -17.9817832
7.866                0.991731417     -18.0114567
7.868                0.991723423     -18.0411253
7.87                 0.991715973      -18.070789
7.872                0.991709068     -18.1004477
7.874                0.991699051     -18.1302896
7.876                0.991689246     -18.1601298
7.878                0.991679656     -18.1899683
7.88                 0.991670278      -18.219805
7.882                0.991659107     -18.2498067
7.884                0.991647636     -18.2798099
7.886                0.991635865     -18.3098145
7.888                0.991623796     -18.3398204
7.89                 0.991611192     -18.3699818
7.892                0.991598017     -18.4001458
7.894                0.991584272     -18.4303121
7.896                0.991569956     -18.4604806
7.898                0.991555346     -18.4907983
7.9                  0.991540295      -18.521118
7.902                0.991524805     -18.5514397
7.904                0.991508876     -18.5817634
7.906                0.991491818     -18.6122327
7.908                0.991474735     -18.6427019
7.91                 0.991457626     -18.6731707
7.912                0.991440492     -18.7036393
7.914                0.991420983     -18.7342524
7.916                 0.99140191     -18.7648616
7.918                0.991383275     -18.7954668
7.92                 0.991365076     -18.8260679
7.922                0.991343641     -18.8568139
7.924                0.991322844     -18.8875543
7.926                0.991302684      -18.918289
7.928                 0.99128316     -18.9490177
7.93                 0.991260702     -18.9798822
7.932                 0.99123861     -19.0107432
7.934                0.991216884     -19.0416007
7.936                0.991195524     -19.0724545
7.938                0.991172716     -19.1034285
7.94                 0.991149695     -19.1344035
7.942                0.991126463     -19.1653794
7.944                0.991103017     -19.1963563
7.946                0.991079905     -19.2274426
7.948                0.991056113     -19.2585342
7.95                 0.991031642     -19.2896309
7.952                 0.99100649     -19.3207324
7.954                0.990982601     -19.3519394
7.956                0.990957986     -19.3831523
7.958                0.990932643      -19.414371
7.96                 0.990906572     -19.4455953
7.962                0.990881288     -19.4769338
7.964                0.990855706     -19.5082739
7.966                0.990829826     -19.5396157
7.968                0.990803648      -19.570959
7.97                 0.990776721     -19.6024258
7.972                0.990750166     -19.6338886
7.974                0.990723985     -19.6653472
7.976                0.990698178     -19.6968016
7.978                0.990670135     -19.7283931
7.98                 0.990642886     -19.7599781
7.982                 0.99061643     -19.7915562
7.984                0.990590768     -19.8231272
7.986                0.990562728     -19.8548351
7.988                0.990535289     -19.8865374
7.99                 0.990508453      -19.918234
7.992                 0.99048222     -19.9499248
7.994                0.990455158     -19.9817478
7.996                0.990428051     -20.0135697
7.998                  0.9904009     -20.0453906
8                    0.990373704     -20.0772105
8.002                0.990347911     -20.1091488
8.004                0.990321392     -20.1410944
8.006                0.990294146     -20.1730471
8.008                0.990266173     -20.2050069
8.01                 0.990241313     -20.2370833
8.012                0.990215402     -20.2691718
8.014                0.990188435     -20.3012721
8.016                0.990160411     -20.3333839
8.018                0.990135613     -20.3656171
8.02                 0.990110108     -20.3978563
8.022                0.990083896     -20.4301016
8.024                0.990056975     -20.4623527
8.026                0.990031399     -20.4947663
8.028                 0.99000607      -20.527176
8.03                 0.989980988     -20.5595817
8.032                0.989956152     -20.5919834
8.034                0.989930081     -20.6245702
8.036                0.989905086     -20.6571496
8.038                0.989881167      -20.689721
8.04                 0.989858325      -20.722284
8.042                 0.98983319     -20.7550458
8.044                0.989809081     -20.7878009
8.046                0.989785999      -20.820549
8.048                0.989763945     -20.8532897
8.05                 0.989741027     -20.8862367
8.052                0.989718367     -20.9191793
8.054                0.989695966     -20.9521176
8.056                0.989673825     -20.9850515
8.058                0.989653525     -21.0181787
8.06                 0.989632556      -21.051313
8.062                0.989610917     -21.0844541
8.064                0.989588607      -21.117602
8.066                 0.98957077     -21.1509312
8.068                0.989551531      -21.184281
8.07                 0.989530884     -21.2176509
8.072                0.989508826     -21.2510404
8.074                0.989492273     -21.2846063
8.076                0.989474377     -21.3181879
8.078                0.989455133     -21.3517847
8.08                 0.989434539     -21.3853962
8.082                0.989417457     -21.4192431
8.084                0.989400305     -21.4530875
8.086                0.989383083     -21.4869296
8.088                0.989365789     -21.5207693
8.09                 0.989347595     -21.5548953
8.092                0.989330944      -21.589013
8.094                 0.98931584     -21.6231217
8.096                0.989302283     -21.6572208
8.098                0.989284906      -21.691614
8.1                  0.989269386     -21.7260037
8.102                0.989255725     -21.7603888
8.104                0.989243928     -21.7947682
8.106                0.989229397     -21.8294551
8.108                0.989215679     -21.8641362
8.11                 0.989202773     -21.8988113
8.112                0.989190682     -21.9334803
8.114                0.989179389     -21.9684586
8.116                0.989167628       -22.00344
8.118                0.989155398     -22.0384243
8.12                 0.989142697     -22.0734115
8.122                0.989134664     -22.1086667
8.124                0.989124849     -22.1439545
8.126                0.989113244     -22.1792739
8.128                0.989099839     -22.2146242
8.13                 0.989094011     -22.2502119
8.132                0.989085733     -22.2858376
8.134                0.989074989     -22.3214995
8.136                0.989061769     -22.3571963
8.138                0.989054746     -22.3931848
8.14                 0.989046738     -22.4291787
8.142                0.989037743     -22.4651778
8.144                0.989027757     -22.5011818
8.146                0.989016739     -22.5375615
8.148                0.989007963     -22.5739314
8.15                 0.989001433     -22.6102906
8.152                0.988997152     -22.6466379
8.154                0.988984463     -22.6833682
8.156                0.988975539     -22.7201096
8.158                0.988970394     -22.7568587
8.16                 0.988969038     -22.7936123
8.162                0.988959443     -22.8307239
8.164                0.988951889     -22.8678432
8.166                0.988946385      -22.904969
8.168                0.988942937     -22.9421003
8.17                 0.988936927     -22.9796239
8.172                0.988930868     -23.0171428
8.174                0.988924757      -23.054657
8.176                0.988918597     -23.0921666
8.178                0.988916182     -23.1300013
8.18                 0.988911545     -23.1678889
8.182                0.988904669      -23.205828
8.184                0.988895534     -23.2438169
8.186                0.988897206     -23.2819935
8.188                0.988894091     -23.3202733
8.19                 0.988886143     -23.3586509
8.192                0.988873318     -23.3971209
8.194                0.988873917      -23.435812
8.196                0.988870404      -23.474549
8.198                0.988862757     -23.5133287
8.2                  0.988850955     -23.5521482