! TOUCHSTONE file generated by CST DESIGN STUDIO
! Date and time: Mon Feb 10 16:53:58 2025
! Project name: C:\Work\MatlabApps\UnitCellType2OptimizationMatlab\CST\unitcell.cst
! Tree item: Tasks\Sweep1\SPara1\S-Parameters
! Header version: 2024
! Port assignment regex: !\s*Touchstone port\s*([0-9]+)\s*=\s*(CST MWS port|CST DES external port|CST DES block port)\s*(.+)\s* \(\"(.*)\"\)(\s*mode\s*([0-9]+))?.*
! Touchstone port assignment:
! Touchstone port 1 = CST DES external port 1 ("")
# GHz S MA R 50
7                    0.995407508     -13.5682353
7.002                0.995398182     -13.5876356
7.004                0.995388841     -13.6070365
7.006                0.995379487     -13.6264381
7.008                0.995370118     -13.6458403
7.01                 0.995360085      -13.665322
7.012                0.995350038     -13.6848043
7.014                0.995339978     -13.7042873
7.016                0.995329904     -13.7237711
7.018                0.995319197     -13.7433285
7.02                 0.995308475     -13.7628868
7.022                0.995297738     -13.7824459
7.024                0.995286986     -13.8020058
7.026                0.995275685      -13.821637
7.028                0.995264368     -13.8412691
7.03                 0.995253034      -13.860902
7.032                0.995241683     -13.8805359
7.034                0.995229855     -13.9002376
7.036                0.995218011     -13.9199403
7.038                0.995206151     -13.9396438
7.04                 0.995194275     -13.9593483
7.042                0.995182024     -13.9791204
7.044                0.995169758     -13.9988936
7.046                0.995157477     -14.0186677
7.048                0.995145181     -14.0384428
7.05                 0.995132594     -14.0582856
7.052                0.995119991     -14.0781295
7.054                0.995107373     -14.0979745
7.056                0.995094738     -14.1178206
7.058                0.995081861     -14.1377353
7.06                 0.995068968     -14.1576512
7.062                0.995056059     -14.1775683
7.064                0.995043134     -14.1974865
7.066                 0.99503001     -14.2174767
7.068                0.995016871     -14.2374682
7.07                 0.995003718     -14.2574608
7.072                0.994990551     -14.2774546
7.074                0.994977236     -14.2975174
7.076                0.994963907     -14.3175815
7.078                0.994950564      -14.337647
7.08                 0.994937207     -14.3577138
7.082                0.994923766     -14.3778492
7.084                 0.99491031     -14.3979861
7.086                0.994896839     -14.4181245
7.088                0.994883354     -14.4382643
7.09                 0.994869902     -14.4584725
7.092                0.994856437     -14.4786821
7.094                0.994842957     -14.4988932
7.096                0.994829464     -14.5191058
7.098                0.994816069     -14.5393907
7.1                  0.994802663     -14.5596772
7.102                0.994789244     -14.5799652
7.104                0.994775814     -14.6002547
7.106                0.994762585     -14.6206222
7.108                0.994749345     -14.6409913
7.11                 0.994736092     -14.6613622
7.112                0.994722829     -14.6817347
7.114                0.994709813     -14.7021879
7.116                0.994696785     -14.7226429
7.118                0.994683746     -14.7430996
7.12                 0.994670695     -14.7635581
7.122                 0.99465791     -14.7841023
7.124                0.994645114     -14.8046482
7.126                0.994632309     -14.8251959
7.128                0.994619493     -14.8457454
7.13                 0.994606956     -14.8663831
7.132                 0.99459441     -14.8870227
7.134                0.994581856     -14.9076642
7.136                0.994569293     -14.9283075
7.138                0.994557035     -14.9490425
7.14                 0.994544768     -14.9697796
7.142                0.994532492     -14.9905186
7.144                0.994520207     -15.0112596
7.146                0.994508284     -15.0320953
7.148                0.994496352      -15.052933
7.15                 0.994484411     -15.0737726
7.152                0.994472462     -15.0946143
7.154                0.994460942     -15.1155541
7.156                0.994449415     -15.1364958
7.158                0.994437881     -15.1574396
7.16                 0.994426341     -15.1783854
7.162                0.994415253     -15.1994349
7.164                0.994404159     -15.2204865
7.166                 0.99439306     -15.2415403
7.168                0.994381954     -15.2625961
7.17                 0.994371343     -15.2837649
7.172                0.994360725     -15.3049359
7.174                0.994350101     -15.3261091
7.176                0.994339471     -15.3472844
7.178                0.994329325     -15.3685779
7.18                 0.994319174     -15.3898736
7.182                0.994309017     -15.4111714
7.184                0.994298855     -15.4324713
7.186                0.994289109     -15.4538966
7.188                0.994279359     -15.4753239
7.19                 0.994269606     -15.4967534
7.192                0.994259848      -15.518185
7.194                 0.99425048     -15.5397435
7.196                0.994241107     -15.5613041
7.198                 0.99423173     -15.5828669
7.2                  0.994222349     -15.6044319
7.202                0.994213347     -15.6261274
7.204                 0.99420434     -15.6478251
7.206                0.994195328     -15.6695249
7.208                0.994186312     -15.6912269
7.21                 0.994177641     -15.7130676
7.212                0.994168965     -15.7349105
7.214                0.994160286     -15.7567555
7.216                0.994151603     -15.7786025
7.218                0.994143305     -15.8005878
7.22                 0.994135003     -15.8225752
7.222                0.994126697     -15.8445647
7.224                0.994118389     -15.8665563
7.226                0.994110424     -15.8886945
7.228                0.994102455     -15.9108349
7.23                 0.994094481     -15.9329774
7.232                0.994086503     -15.9551221
7.234                0.994078816      -15.977421
7.236                0.994071124      -15.999722
7.238                0.994063428      -16.022025
7.24                 0.994055728     -16.0443302
7.242                0.994048233     -16.0667939
7.244                0.994040735     -16.0892596
7.246                0.994033233     -16.1117272
7.248                0.994025728     -16.1341969
7.25                 0.994018348     -16.1568289
7.252                0.994010964     -16.1794629
7.254                0.994003576     -16.2020988
7.256                0.993996184     -16.2247367
7.258                0.993988838      -16.247536
7.26                 0.993981487     -16.2703372
7.262                0.993974131     -16.2931404
7.264                0.993966769     -16.3159456
7.266                0.993959427     -16.3389147
7.268                0.993952079     -16.3618857
7.27                 0.993944725     -16.3848586
7.272                0.993937365     -16.4078333
7.274                0.993929979     -16.4309769
7.276                0.993922587     -16.4541223
7.278                0.993915189     -16.4772696
7.28                 0.993907785     -16.5004187
7.282                0.993900326     -16.5237377
7.284                 0.99389286     -16.5470586
7.286                0.993885386     -16.5703814
7.288                0.993877905      -16.593706
7.29                 0.993870321     -16.6172026
7.292                0.993862729      -16.640701
7.294                0.993855128     -16.6642012
7.296                0.993847517     -16.6877032
7.298                0.993839701     -16.7113854
7.3                  0.993831875     -16.7350692
7.302                0.993824041     -16.7587547
7.304                0.993816198     -16.7824419
7.306                0.993808061     -16.8063053
7.308                0.993799914     -16.8301703
7.31                 0.993791759      -16.854037
7.312                0.993783595     -16.8779053
7.314                0.993775045     -16.9019518
7.316                0.993766485     -16.9259999
7.318                0.993757914     -16.9500497
7.32                 0.993749331     -16.9741011
7.322                0.993740331     -16.9983278
7.324                0.993731318     -17.0225562
7.326                0.993722291     -17.0467862
7.328                0.993713251     -17.0710178
7.33                  0.99370378     -17.0954229
7.332                0.993694294     -17.1198296
7.334                0.993684794     -17.1442379
7.336                0.993675281     -17.1686478
7.338                 0.99366533     -17.1932322
7.34                 0.993655364     -17.2178183
7.342                0.993645383     -17.2424059
7.344                0.993635386     -17.2669953
7.346                0.993624934     -17.2917603
7.348                0.993614465     -17.3165269
7.35                 0.993603978     -17.3412952
7.352                0.993593475     -17.3660651
7.354                0.993582465     -17.3910137
7.356                0.993571437     -17.4159639
7.358                0.993560392     -17.4409156
7.36                 0.993549329     -17.4658688
7.362                0.993537698     -17.4909975
7.364                 0.99352605     -17.5161276
7.366                0.993514384     -17.5412592
7.368                  0.9935027     -17.5663922
7.37                 0.993490387     -17.5917018
7.372                0.993478056     -17.6170129
7.374                0.993465704     -17.6423254
7.376                0.993453333     -17.6676395
7.378                0.993440316     -17.6931262
7.38                 0.993427277     -17.7186144
7.382                0.993414216     -17.7441042
7.384                0.993401134     -17.7695955
7.386                0.993387425     -17.7952542
7.388                0.993373694     -17.8209143
7.39                  0.99335994      -17.846576
7.392                0.993346163     -17.8722392
7.394                0.993331807     -17.8980704
7.396                0.993317428     -17.9239032
7.398                0.993303025     -17.9497375
7.4                  0.993288598     -17.9755735
7.402                0.993273616     -18.0015784
7.404                0.993258609      -18.027585
7.406                0.993243577     -18.0535933
7.408                 0.99322852     -18.0796032
7.41                 0.993212915     -18.1057836
7.412                0.993197285     -18.1319656
7.414                 0.99318163     -18.1581491
7.416                0.993165948     -18.1843344
7.418                0.993149722     -18.2106887
7.42                  0.99313347     -18.2370446
7.422                0.993117194      -18.263402
7.424                0.993100892      -18.289761
7.426                0.993084021     -18.3162885
7.428                0.993067124     -18.3428176
7.43                 0.993050202     -18.3693484
7.432                0.993033254     -18.3958809
7.434                0.993015749     -18.4225793
7.436                0.992998217     -18.4492795
7.438                0.992980658     -18.4759814
7.44                 0.992963071     -18.5026852
7.442                0.992944986     -18.5295552
7.444                0.992926873     -18.5564271
7.446                0.992908732     -18.5833009
7.448                0.992890563     -18.6101764
7.45                  0.99287196     -18.6372144
7.452                 0.99285333     -18.6642542
7.454                0.992834673      -18.691296
7.456                0.992815988     -18.7183398
7.458                0.992796965     -18.7455469
7.46                 0.992777915     -18.7727562
7.462                0.992758837     -18.7999675
7.464                0.992739731     -18.8271809
7.466                0.992720349     -18.8545636
7.468                 0.99270094     -18.8819484
7.47                 0.992681502     -18.9093353
7.472                0.992662036     -18.9367244
7.474                0.992642319     -18.9642845
7.476                0.992622575     -18.9918466
7.478                0.992602805     -19.0194108
7.48                 0.992583007     -19.0469771
7.482                0.992562978     -19.0747177
7.484                0.992542923     -19.1024605
7.486                0.992522843     -19.1302054
7.488                0.992502736     -19.1579525
7.49                 0.992482393      -19.185876
7.492                0.992462023     -19.2138019
7.494                0.992441627       -19.24173
7.496                0.992421205     -19.2696606
7.498                0.992400615     -19.2977644
7.5                  0.992379999     -19.3258707
7.502                0.992359357     -19.3539794
7.504                0.992338688     -19.3820907
7.506                0.992317912     -19.4103797
7.508                 0.99229711     -19.4386714
7.51                 0.992276283     -19.4669657
7.512                0.992255432     -19.4952626
7.514                0.992234557     -19.5237412
7.516                0.992213659     -19.5522226
7.518                0.992192736     -19.5807068
7.52                 0.992171789     -19.6091939
7.522                0.992150895     -19.6378661
7.524                0.992129977     -19.6665412
7.526                0.992109035     -19.6952192
7.528                 0.99208807     -19.7239002
7.53                 0.992067188     -19.7527732
7.532                0.992046284     -19.7816491
7.534                0.992025357     -19.8105278
7.536                0.992004407     -19.8394095
7.538                0.991983546     -19.8684867
7.54                 0.991962665     -19.8975667
7.542                0.991941762     -19.9266497
7.544                0.991920838     -19.9557357
7.546                0.991900003     -19.9850284
7.548                0.991879146     -20.0143242
7.55                  0.99185827     -20.0436232
7.552                0.991837372     -20.0729252
7.554                0.991816562     -20.1024328
7.556                0.991795731     -20.1319438
7.558                0.991774879      -20.161458
7.56                 0.991754006     -20.1909755
7.562                0.991733268     -20.2207036
7.564                 0.99171251     -20.2504351
7.566                0.991691732     -20.2801701
7.568                0.991670935     -20.3099085
7.57                 0.991650335     -20.3398584
7.572                0.991629717     -20.3698119
7.574                 0.99160908      -20.399769
7.576                0.991588424     -20.4297299
7.578                0.991567985     -20.4599168
7.58                 0.991547527     -20.4901076
7.582                0.991527051     -20.5203022
7.584                0.991506556     -20.5505007
7.586                 0.99148631     -20.5809301
7.588                0.991466045     -20.6113632
7.59                 0.991445762     -20.6418001
7.592                0.991425461     -20.6722408
7.594                0.991405366     -20.7029199
7.596                0.991385253     -20.7336026
7.598                0.991365123      -20.764289
7.6                  0.991344976     -20.7949791
7.602                0.991324974     -20.8259164
7.604                0.991304954     -20.8568575
7.606                0.991284917     -20.8878023
7.608                0.991264864      -20.918751
7.61                 0.991244913     -20.9499515
7.612                0.991224944      -20.981156
7.614                0.991204957     -21.0123644
7.616                0.991184952     -21.0435767
7.618                 0.99116502     -21.0750445
7.62                  0.99114507     -21.1065164
7.622                0.991125101     -21.1379924
7.624                0.991105114     -21.1694725
7.626                0.991085217     -21.2012147
7.628                0.991065301     -21.2329611
7.63                 0.991045368     -21.2647118
7.632                0.991025416     -21.2964668
7.634                0.991005538     -21.3284862
7.636                0.990985641     -21.3605101
7.638                0.990965725     -21.3925384
7.64                  0.99094579     -21.4245711
7.642                0.990925942       -21.45688
7.644                0.990906073     -21.4891931
7.646                0.990886185     -21.5215106
7.648                0.990866276     -21.5538325
7.65                  0.99084639     -21.5864369
7.652                0.990826484     -21.6190454
7.654                0.990806556     -21.6516579
7.656                0.990786608     -21.6842746
7.658                0.990766573     -21.7171846
7.66                 0.990746517     -21.7500987
7.662                0.990726439     -21.7830169
7.664                0.990706339     -21.8159391
7.666                0.990686081     -21.8491592
7.668                0.990665799     -21.8823835
7.67                 0.990645493      -21.915612
7.672                0.990625164     -21.9488447
7.674                0.990604583      -21.982377
7.676                0.990583977     -22.0159137
7.678                0.990563344     -22.0494546
7.68                 0.990542686     -22.0829999
7.682                0.990521757     -22.1168467
7.684                  0.9905008      -22.150698
7.686                0.990479817     -22.1845538
7.688                0.990458807     -22.2184141
7.69                 0.990437469     -22.2525812
7.692                0.990416103     -22.2867531
7.694                0.990394708     -22.3209295
7.696                0.990373285     -22.3551107
7.698                0.990351543     -22.3896068
7.7                  0.990329769     -22.4241075
7.702                0.990307964     -22.4586127
7.704                0.990286127     -22.4931224
7.706                0.990263886     -22.5279509
7.708                0.990241611     -22.5627835
7.71                 0.990219302     -22.5976203
7.712                0.990196959     -22.6324612
7.714                0.990174119     -22.6676279
7.716                0.990151244     -22.7027985
7.718                0.990128332     -22.7379731
7.72                 0.990105385     -22.7731516
7.722                0.990081858     -22.8086597
7.724                0.990058293     -22.8441718
7.726                 0.99003469     -22.8796879
7.728                0.990011048      -22.915208
7.73                 0.989986714     -22.9510586
7.732                0.989962339     -22.9869133
7.734                0.989937922     -23.0227723
7.736                0.989913462     -23.0586354
7.738                0.989888285     -23.0948302
7.74                 0.989863063     -23.1310293
7.742                0.989837797     -23.1672328
7.744                0.989812486     -23.2034408
7.746                 0.98978645     -23.2399792
7.748                0.989760368     -23.2765223
7.75                  0.98973424     -23.3130699
7.752                0.989708065     -23.3496222
7.754                0.989681165      -23.386507
7.756                0.989654216     -23.4233963
7.758                0.989627217     -23.4602901
7.76                 0.989600168     -23.4971884
7.762                0.989572384     -23.5344279
7.764                0.989544546     -23.5716714
7.766                0.989516655     -23.6089191
7.768                0.989488711     -23.6461707
7.77                 0.989459983     -23.6837713
7.772                  0.9894312     -23.7213755
7.774                0.989402361     -23.7589834
7.776                0.989373467      -23.796595
7.778                0.989343691     -23.8345524
7.78                 0.989313857     -23.8725134
7.782                0.989283965     -23.9104782
7.784                0.989254015     -23.9484466
7.786                0.989223148     -23.9867683
7.788                0.989192219     -24.0250939
7.79                 0.989161229     -24.0634235
7.792                0.989130178     -24.1017571
7.794                0.989098163     -24.1404353
7.796                0.989066084     -24.1791178
7.798                0.989033941     -24.2178046
7.8                  0.989001734     -24.2564958
7.802                0.988968605      -24.295536
7.804                 0.98893541     -24.3345808
7.806                0.988902149     -24.3736302
7.808                0.988868823     -24.4126843
7.81                 0.988834617     -24.4520892
7.812                0.988800344     -24.4914987
7.814                0.988766003     -24.5309129
7.816                0.988731593     -24.5703317
7.818                0.988696339     -24.6101007
7.82                 0.988661014      -24.649874
7.822                0.988625617     -24.6896514
7.824                0.988590149     -24.7294331
7.826                0.988553868     -24.7695776
7.828                0.988517513     -24.8097257
7.83                 0.988481084     -24.8498776
7.832                0.988444582     -24.8900332
7.834                0.988407236     -24.9305515
7.836                0.988369815     -24.9710735
7.838                0.988332319     -25.0115991
7.84                 0.988294748     -25.0521283
7.842                0.988256327     -25.0930287
7.844                0.988217829     -25.1339331
7.846                0.988179254     -25.1748415
7.848                0.988140602     -25.2157538
7.85                 0.988101105      -25.257035
7.852                 0.98806153     -25.2983207
7.854                0.988021876     -25.3396109
7.856                0.987982143     -25.3809057
7.858                0.987941609     -25.4225668
7.86                 0.987900996     -25.4642331
7.862                0.987860304     -25.5059043
7.864                0.987819533     -25.5475806
7.866                0.987778029     -25.5896251
7.868                0.987736446     -25.6316747
7.87                 0.987694782     -25.6737297
7.872                 0.98765304     -25.7157899
7.874                0.987610695     -25.7582287
7.876                0.987568269     -25.8006726
7.878                0.987525761     -25.8431213
7.88                 0.987483172      -25.885575
7.882                0.987440036     -25.9284136
7.884                0.987396816     -25.9712564
7.886                0.987353514     -26.0141036
7.888                0.987310127     -26.0569552
7.89                 0.987266226     -26.1002035
7.892                0.987222241      -26.143456
7.894                0.987178171     -26.1867125
7.896                0.987134017      -26.229973
7.898                0.987089383     -26.2736369
7.9                  0.987044665     -26.3173052
7.902                0.986999863     -26.3609778
7.904                0.986954976     -26.4046549
7.906                0.986909599     -26.4487389
7.908                 0.98686414     -26.4928281
7.91                 0.986818596     -26.5369224
7.912                 0.98677297      -26.581022
7.914                0.986726898     -26.6255311
7.916                0.986680745     -26.6700463
7.918                0.986634511     -26.7145676
7.92                 0.986588196     -26.7590951
7.922                0.986541561     -26.8040396
7.924                0.986494847     -26.8489908
7.926                0.986448054     -26.8939487
7.928                0.986401182     -26.9389133
7.93                 0.986354082     -26.9843039
7.932                0.986306902     -27.0297011
7.934                0.986259643     -27.0751046
7.936                0.986212304     -27.1205147
7.938                0.986164785      -27.166363
7.94                 0.986117184     -27.2122171
7.942                0.986069501      -27.258077
7.944                0.986021736     -27.3039426
7.946                0.985973874     -27.3502646
7.948                0.985925928     -27.3965917
7.95                 0.985877897      -27.442924
7.952                0.985829783     -27.4892615
7.954                0.985781508     -27.5360693
7.956                 0.98573315     -27.5828824
7.958                0.985684707     -27.6297009
7.96                  0.98563618     -27.6765246
7.962                0.985587517     -27.7238313
7.964                0.985538773     -27.7711442
7.966                 0.98548995     -27.8184634
7.968                0.985441045     -27.8657889
7.97                 0.985391945     -27.9135968
7.972                 0.98534277     -27.9614124
7.974                0.985293519     -28.0092358
7.976                0.985244193     -28.0570669
7.978                0.985194756     -28.1053924
7.98                 0.985145246     -28.1537267
7.982                0.985095665     -28.2020697
7.984                0.985046012     -28.2504215
7.986                0.984996234     -28.2992772
7.988                0.984946383     -28.3481416
7.99                 0.984896459     -28.3970148
7.992                0.984846464     -28.4458967
7.994                0.984796462     -28.4953026
7.996                0.984746384     -28.5447163
7.998                0.984696229     -28.5941377
8                    0.984645999      -28.643567
8.002                0.984595754     -28.6935364
8.004                0.984545427     -28.7435127
8.006                0.984495017     -28.7934956
8.008                0.984444524     -28.8434853
8.01                 0.984393976     -28.8940473
8.012                 0.98434334     -28.9446158
8.014                0.984292618     -28.9951906
8.016                0.984241808     -29.0457717
8.018                0.984190858     -29.0969238
8.02                 0.984139824     -29.1480831
8.022                0.984088708     -29.1992496
8.024                0.984037508     -29.2504233
8.026                0.983986072     -29.3021918
8.028                0.983934562     -29.3539697
8.03                 0.983882977      -29.405757
8.032                0.983831319     -29.4575538
8.034                0.983779355     -29.5099413
8.036                0.983727322     -29.5623401
8.038                0.983675221     -29.6147503
8.04                 0.983623051     -29.6671718
8.042                0.983570503     -29.7201992
8.044                0.983517883      -29.773238
8.046                0.983465193     -29.8262884
8.048                0.983412433     -29.8793504
8.05                 0.983359343     -29.9330431
8.052                0.983306175     -29.9867461
8.054                0.983252929     -30.0404592
8.056                0.983199605     -30.0941825
8.058                0.983145914     -30.1485514
8.06                 0.983092131     -30.2029287
8.062                0.983038255     -30.2573144
8.064                0.982984286     -30.3117083
8.066                0.982929887     -30.3667837
8.068                0.982875378     -30.4218661
8.07                 0.982820761     -30.4769554
8.072                0.982766034     -30.5320517
8.074                0.982710707     -30.5878318
8.076                0.982655271     -30.6436191
8.078                0.982599724     -30.6994135
8.08                 0.982544067     -30.7552151
8.082                0.982487683     -30.8117232
8.084                0.982431204     -30.8682414
8.086                0.982374631     -30.9247697
8.088                0.982317964     -30.9813082
8.09                 0.982260316     -31.0385599
8.092                0.982202584     -31.0958257
8.094                0.982144768     -31.1531057
8.096                 0.98208687        -31.2104
8.098                0.982027951     -31.2683999
8.1                  0.981968941     -31.3264149
8.102                0.981909843     -31.3844451
8.104                0.981850658     -31.4424905
8.106                0.981790331      -31.501268
8.108                0.981729902     -31.5600582
8.11                 0.981669372     -31.6188612
8.112                0.981608742     -31.6776769
8.114                0.981546922     -31.7372507
8.116                0.981484978     -31.7968343
8.118                 0.98142291     -31.8564275
8.12                 0.981360717     -31.9160304
8.122                0.981297328     -31.9764142
8.124                0.981233774     -32.0368045
8.126                0.981170055     -32.0972012
8.128                0.981106171     -32.1576042
8.13                 0.981040938     -32.2188161
8.132                 0.98097552     -32.2800328
8.134                 0.98090992     -32.3412542
8.136                0.980844135     -32.4024801
8.138                 0.98077681     -32.4645195
8.14                 0.980709332     -32.5265672
8.142                0.980641699     -32.5886232
8.144                0.980573911     -32.6506874
8.146                0.980504335      -32.713561
8.148                0.980434639     -32.7764517
8.15                 0.980364823     -32.8393595
8.152                0.980294889     -32.9022845
8.154                0.980222921     -32.9660171
8.156                0.980150822     -33.0297715
8.158                0.980078595     -33.0935478
8.16                 0.980006245     -33.1573461
8.162                0.979931876      -33.221948
8.164                0.979857353     -33.2865669
8.166                0.979782678     -33.3512027
8.168                0.979707851     -33.4158557
8.17                 0.979631025     -33.4813594
8.172                0.979554024      -33.546874
8.174                0.979476849     -33.6123994
8.176                0.979399498     -33.6779357
8.178                0.979320175       -33.74434
8.18                 0.979240592     -33.8107493
8.182                0.979160749     -33.8771633
8.184                0.979080646     -33.9435819
8.186                0.978998714      -34.010916
8.188                0.978916436     -34.0782477
8.19                 0.978833813     -34.1455765
8.192                0.978750846     -34.2129021
8.194                0.978665898     -34.2811766
8.196                0.978580649       -34.34945
8.198                  0.9784951     -34.4177217
8.2                   0.97840925     -34.4859916