! TOUCHSTONE file generated by CST DESIGN STUDIO
! Date and time: Mon Feb 10 16:54:04 2025
! Project name: C:\Work\MatlabApps\UnitCellType2OptimizationMatlab\CST\unitcell.cst
! Tree item: Tasks\Sweep1\SPara1\S-Parameters
! Header version: 2024
! Port assignment regex: !\s*Touchstone port\s*([0-9]+)\s*=\s*(CST MWS port|CST DES external port|CST DES block port)\s*(.+)\s* \(\"(.*)\"\)(\s*mode\s*([0-9]+))?.*
! Touchstone port assignment:
! Touchstone port 1 = CST DES external port 1 ("")
# GHz S MA R 50
7                    0.993980027     -11.0473708
7.002                0.993973733      -11.066322
7.004                0.993967435     -11.0852717
7.006                0.993961134     -11.1042199
7.008                 0.99395483     -11.1231666
7.01                 0.993946453     -11.1421298
7.012                0.993937972     -11.1610906
7.014                0.993929388     -11.1800491
7.016                0.993920701     -11.1990051
7.018                0.993910038      -11.217971
7.02                 0.993899361     -11.2369303
7.022                0.993888668      -11.255883
7.024                0.993877963     -11.2748292
7.026                0.993865184      -11.293776
7.028                0.993852471     -11.3127184
7.03                 0.993839821     -11.3316566
7.032                0.993827236     -11.3505905
7.034                0.993812821     -11.3695025
7.036                0.993798357     -11.3884141
7.038                0.993783844     -11.4073253
7.04                 0.993769282     -11.4262361
7.042                 0.99375342      -11.445114
7.044                 0.99373744     -11.4639894
7.046                0.993721342     -11.4828625
7.048                0.993705126     -11.5017333
7.05                 0.993687815     -11.5205712
7.052                0.993670489     -11.5394045
7.054                0.993653147     -11.5582331
7.056                 0.99363579     -11.5770571
7.058                0.993617366     -11.5958447
7.06                 0.993598953     -11.6146308
7.062                0.993580551     -11.6334154
7.064                0.993562159     -11.6521985
7.066                0.993543005     -11.6709384
7.068                 0.99352376     -11.6896782
7.07                 0.993504424     -11.7084181
7.072                0.993484998     -11.7271579
7.074                0.993465128     -11.7458527
7.076                0.993445188      -11.764544
7.078                0.993425179     -11.7832321
7.08                 0.993405103     -11.8019167
7.082                0.993384621      -11.820558
7.084                0.993364163     -11.8391961
7.086                 0.99334373     -11.8578309
7.088                0.993323322     -11.8764625
7.09                 0.993302717     -11.8950429
7.092                0.993282081     -11.9136235
7.094                0.993261415     -11.9322045
7.096                0.993240719     -11.9507857
7.098                0.993220298     -11.9693133
7.1                   0.99319976     -11.9878404
7.102                0.993179106     -12.0063672
7.104                0.993158335     -12.0248937
7.106                0.993138166     -12.0433781
7.108                 0.99311795     -12.0618592
7.11                 0.993097684     -12.0803368
7.112                 0.99307737     -12.0988112
7.114                0.993057702     -12.1172523
7.116                0.993038052     -12.1356917
7.118                 0.99301842     -12.1541293
7.12                 0.992998803     -12.1725653
7.122                0.992980033      -12.190971
7.124                  0.9929612     -12.2093779
7.126                0.992942304     -12.2277859
7.128                0.992923345     -12.2461951
7.13                 0.992905542     -12.2645808
7.132                0.992887644     -12.2829658
7.134                0.992869653       -12.30135
7.136                0.992851567     -12.3197335
7.138                  0.9928347     -12.3381067
7.14                 0.992817821     -12.3564779
7.142                0.992800933      -12.374847
7.144                0.992784034      -12.393214
7.146                0.992768379     -12.4115765
7.148                0.992752714     -12.4299394
7.15                  0.99273704     -12.4483028
7.152                0.992721356     -12.4666667
7.154                0.992707208     -12.4850292
7.156                0.992692974     -12.5033926
7.158                0.992678655     -12.5217567
7.16                 0.992664251     -12.5401217
7.162                0.992651609     -12.5585011
7.164                0.992638915     -12.5768783
7.166                0.992626171     -12.5952532
7.168                0.992613375      -12.613626
7.17                 0.992602321      -12.632034
7.172                0.992591301     -12.6504399
7.174                0.992580313     -12.6688437
7.176                0.992569357     -12.6872452
7.178                0.992560174     -12.7056921
7.18                 0.992550977     -12.7241401
7.182                0.992541764      -12.742589
7.184                0.992532536     -12.7610391
7.186                0.992525233     -12.7795472
7.188                0.992517847      -12.798056
7.19                 0.992510379     -12.8165655
7.192                0.992502829     -12.8350757
7.194                0.992497206     -12.8536592
7.196                0.992491557     -12.8722413
7.198                0.992485883     -12.8908221
7.2                  0.992480184     -12.9094016
7.202                0.992476236     -12.9280664
7.204                0.992472305     -12.9467313
7.206                0.992468391     -12.9653962
7.208                0.992464496     -12.9840612
7.21                 0.992462307     -13.0028219
7.212                0.992460087     -13.0215837
7.214                0.992457835     -13.0403467
7.216                0.992455551     -13.0591109
7.218                0.992455092       -13.07798
7.22                 0.992454607     -13.0968478
7.222                0.992454097     -13.1157143
7.224                 0.99245356     -13.1345796
7.226                0.992454673     -13.1535705
7.228                 0.99245584     -13.1725589
7.23                 0.992457062     -13.1915448
7.232                0.992458338     -13.2105283
7.234                0.992461091      -13.229651
7.236                0.992463881     -13.2487739
7.238                0.992466708     -13.2678971
7.24                 0.992469574     -13.2870205
7.242                 0.99247393     -13.3062912
7.244                0.992478237     -13.3255631
7.246                0.992482496     -13.3448361
7.248                0.992486707     -13.3641102
7.25                 0.992492341      -13.383545
7.252                0.992497946     -13.4029789
7.254                0.992503522     -13.4224119
7.256                0.992509068     -13.4418439
7.258                0.992515718     -13.4614448
7.26                 0.992522403      -13.481045
7.262                0.992529121     -13.5006446
7.264                0.992535874     -13.5202436
7.266                0.992543505     -13.5400153
7.268                0.992551152     -13.5597878
7.27                 0.992558816     -13.5795613
7.272                0.992566498     -13.5993356
7.274                0.992574946     -13.6192897
7.276                0.992583397     -13.6392433
7.278                 0.99259185     -13.6591964
7.28                 0.992600306     -13.6791489
7.282                0.992609348     -13.6992905
7.284                0.992618454     -13.7194298
7.286                0.992627624     -13.7395667
7.288                0.992636858     -13.7597012
7.29                 0.992646434     -13.7800309
7.292                 0.99265608     -13.8003599
7.294                0.992665798     -13.8206883
7.296                0.992675587     -13.8410161
7.298                0.992685603     -13.8615447
7.3                  0.992695601     -13.8820743
7.302                0.992705583      -13.902605
7.304                0.992715547     -13.9231366
7.306                0.992725686     -13.9438694
7.308                0.992735787     -13.9646016
7.31                 0.992745849     -13.9853331
7.312                0.992755873      -14.006064
7.314                0.992765733     -14.0270019
7.316                0.992775618     -14.0479384
7.318                0.992785528     -14.0688737
7.32                 0.992795462     -14.0898077
7.322                0.992804934     -14.1109436
7.324                0.992814443     -14.1320799
7.326                0.992823988     -14.1532163
7.328                 0.99283357      -14.174353
7.33                 0.992842535     -14.1956848
7.332                0.992851514     -14.2170165
7.334                0.992860508     -14.2383481
7.336                0.992869515     -14.2596797
7.338                 0.99287776     -14.2812075
7.34                 0.992886056     -14.3027333
7.342                0.992894404     -14.3242571
7.344                0.992902803     -14.3457789
7.346                 0.99291023     -14.3674963
7.348                0.992917732     -14.3892125
7.35                  0.99292531     -14.4109273
7.352                0.992932963     -14.4326408
7.354                0.992939571     -14.4545466
7.356                0.992946179      -14.476453
7.358                0.992952786       -14.49836
7.36                 0.992959393     -14.5202677
7.362                0.992964984     -14.5423604
7.364                0.992970522      -14.564453
7.366                0.992976005     -14.5865452
7.368                0.992981433     -14.6086372
7.37                  0.99298566     -14.6309146
7.372                0.992989879     -14.6531904
7.374                0.992994089     -14.6754647
7.376                0.992998292     -14.6977376
7.378                0.993001008     -14.7201866
7.38                 0.993003751     -14.7426352
7.382                0.993006521     -14.7650834
7.384                0.993009317     -14.7875313
7.386                0.993010513     -14.8101402
7.388                0.993011716     -14.8327493
7.39                 0.993012928     -14.8553584
7.392                0.993014148     -14.8779676
7.394                0.993013746     -14.9007316
7.396                0.993013369     -14.9234942
7.398                0.993013017     -14.9462552
7.4                  0.993012689     -14.9690147
7.402                0.993010643     -14.9919244
7.404                0.993008655     -15.0148325
7.406                0.993006726     -15.0377388
7.408                0.993004855     -15.0606435
7.41                  0.99300127       -15.08369
7.412                0.992997691     -15.1067367
7.414                0.992994118     -15.1297837
7.416                0.992990551     -15.1528309
7.418                0.992985445     -15.1760099
7.42                  0.99298027     -15.1991892
7.422                0.992975027     -15.2223689
7.424                0.992969717     -15.2455489
7.426                0.992962878     -15.2688555
7.428                 0.99295599     -15.2921611
7.43                 0.992949052     -15.3154657
7.432                0.992942065     -15.3387694
7.434                0.992933422     -15.3621909
7.436                0.992924777      -15.385612
7.438                0.992916128     -15.4090325
7.44                 0.992907475     -15.4324526
7.442                0.992897124     -15.4559795
7.444                0.992886765     -15.4795066
7.446                0.992876397     -15.5030341
7.448                0.992866021     -15.5265619
7.45                 0.992854029     -15.5501837
7.452                0.992842032     -15.5738046
7.454                 0.99283003     -15.5974246
7.456                0.992818024     -15.6210438
7.458                0.992804467     -15.6447515
7.46                 0.992790942     -15.6684576
7.462                0.992777451     -15.6921619
7.464                0.992763992     -15.7158644
7.466                0.992749114     -15.7396518
7.468                0.992734244      -15.763439
7.47                 0.992719382     -15.7872262
7.472                 0.99270453     -15.8110132
7.474                0.992688519     -15.8348765
7.476                0.992672435     -15.8587408
7.478                 0.99265628     -15.8826061
7.48                 0.992640053     -15.9064724
7.482                0.992622902     -15.9304127
7.484                0.992605666     -15.9543531
7.486                0.992588343     -15.9782935
7.488                0.992570935      -16.002234
7.49                 0.992552605     -16.0262464
7.492                0.992534235     -16.0502587
7.494                0.992515824     -16.0742709
7.496                0.992497373     -16.0982831
7.498                0.992478042      -16.122358
7.5                  0.992458684     -16.1464337
7.502                0.992439298     -16.1705101
7.504                0.992419885     -16.1945872
7.506                0.992399702     -16.2187244
7.508                0.992379494     -16.2428615
7.51                  0.99235926     -16.2669983
7.512                   0.992339     -16.2911349
7.514                0.992318113     -16.3153321
7.516                0.992297239     -16.3395277
7.518                0.992276377     -16.3637216
7.52                 0.992255527      -16.387914
7.522                0.992234208     -16.4121663
7.524                0.992212904     -16.4364181
7.526                0.992191614     -16.4606693
7.528                 0.99217034       -16.48492
7.53                 0.992148881     -16.5092299
7.532                0.992127362     -16.5335412
7.534                0.992105782     -16.5578537
7.536                0.992084142     -16.5821675
7.538                0.992062647     -16.6065404
7.54                 0.992041046     -16.6309143
7.542                 0.99201934     -16.6552894
7.544                0.991997528     -16.6796655
7.546                0.991975992     -16.7041109
7.548                0.991954382     -16.7285569
7.55                   0.9919327     -16.7530036
7.552                0.991910945     -16.7774508
7.554                0.991889467     -16.8019664
7.556                0.991867948     -16.8264831
7.558                0.991846387     -16.8510007
7.56                 0.991824785     -16.8755195
7.562                0.991803545     -16.9001103
7.564                0.991782275     -16.9247015
7.566                0.991760975      -16.949293
7.568                0.991739645     -16.9738848
7.57                 0.991718791     -16.9985526
7.572                0.991697946     -17.0232189
7.574                0.991677111     -17.0478837
7.576                0.991656285     -17.0725471
7.578                0.991636001     -17.0973016
7.58                  0.99161575     -17.1220549
7.582                0.991595532      -17.146807
7.584                0.991575346     -17.1715579
7.586                0.991555947     -17.1964032
7.588                0.991536519     -17.2212495
7.59                 0.991517061     -17.2460967
7.592                0.991497574     -17.2709448
7.594                 0.99147917     -17.2958938
7.596                0.991460665     -17.3208444
7.598                0.991442061     -17.3457967
7.6                  0.991423358     -17.3707506
7.602                0.991405861     -17.3958184
7.604                0.991388276     -17.4208872
7.606                0.991370603     -17.4459571
7.608                0.991352842     -17.4710281
7.61                 0.991336226     -17.4962228
7.612                0.991319567     -17.5214187
7.614                0.991302865     -17.5466156
7.616                0.991286118     -17.5718136
7.618                0.991270439     -17.5971433
7.62                 0.991254745     -17.6224735
7.622                0.991239037     -17.6478042
7.624                0.991223314     -17.6731354
7.626                0.991208613     -17.6986112
7.628                0.991193941     -17.7240856
7.63                 0.991179298     -17.7495585
7.632                0.991164683     -17.7750301
7.634                0.991151037     -17.8006558
7.636                0.991137458     -17.8262795
7.638                0.991123946     -17.8519012
7.64                 0.991110501      -17.877521
7.642                0.991098132     -17.9033077
7.644                0.991085783     -17.9290945
7.646                0.991073455     -17.9548812
7.648                0.991061149      -17.980668
7.65                  0.99105012     -18.0066283
7.652                0.991039022     -18.0325901
7.654                0.991027856     -18.0585534
7.656                0.991016621     -18.0845182
7.658                0.991006766     -18.1106715
7.66                 0.990996824      -18.136826
7.662                0.990986794     -18.1629817
7.664                0.990976678     -18.1891386
7.666                0.990967822     -18.2154961
7.668                0.990958926     -18.2418545
7.67                 0.990949991     -18.2682137
7.672                0.990941015     -18.2945738
7.674                0.990933042      -18.321144
7.676                0.990925078     -18.3477146
7.678                0.990917123     -18.3742855
7.68                 0.990909177     -18.4008568
7.682                0.990902014     -18.4276478
7.684                0.990894911     -18.4544373
7.686                0.990887868     -18.4812253
7.688                0.990880885     -18.5080119
7.69                 0.990874469     -18.5350314
7.692                0.990868159     -18.5620483
7.694                0.990861956     -18.5890626
7.696                 0.99085586     -18.6160742
7.698                0.990850283     -18.6433293
7.7                   0.99084478     -18.6705832
7.702                0.990839354      -18.697836
7.704                0.990834003     -18.7250877
7.706                0.990829275     -18.7525852
7.708                0.990824521     -18.7800836
7.71                 0.990819739     -18.8075829
7.712                0.990814931     -18.8350831
7.714                 0.99081085     -18.8628374
7.716                0.990806689     -18.8905928
7.718                0.990802446     -18.9183493
7.72                 0.990798121     -18.9461067
7.722                0.990794379     -18.9741275
7.724                0.990790591     -19.0021489
7.726                0.990786756     -19.0301707
7.728                0.990782874     -19.0581931
7.73                 0.990779221     -19.0864845
7.732                0.990775585      -19.114776
7.734                0.990771966     -19.1430675
7.736                0.990768365     -19.1713591
7.738                 0.99076465     -19.1999264
7.74                 0.990761015     -19.2284923
7.742                0.990757461     -19.2570566
7.744                0.990753986     -19.2856195
7.746                0.990750104     -19.3144621
7.748                0.990746356     -19.3433016
7.75                 0.990742741     -19.3721382
7.752                0.990739259     -19.4009717
7.754                0.990735222     -19.4300876
7.756                  0.9907313     -19.4592013
7.758                0.990727494     -19.4883127
7.76                 0.990723803      -19.517422
7.762                0.990719666     -19.5468158
7.764                0.990715536     -19.5762097
7.766                0.990711414     -19.6056035
7.768                0.990707298     -19.6349973
7.77                 0.990702911     -19.6646775
7.772                 0.99069844     -19.6943586
7.774                0.990693886     -19.7240403
7.776                0.990689248     -19.7537229
7.778                0.990684255     -19.7836898
7.78                 0.990679186     -19.8136571
7.782                0.990674042     -19.8436248
7.784                0.990668822     -19.8735928
7.786                0.990662953      -19.903853
7.788                0.990657077     -19.9341129
7.79                 0.990651196     -19.9643726
7.792                0.990645308     -19.9946321
7.794                0.990638367     -20.0251772
7.796                0.990631499     -20.0557207
7.798                0.990624704     -20.0862627
7.8                  0.990617981     -20.1168032
7.802                0.990609882     -20.1476339
7.804                0.990601921     -20.1784614
7.806                0.990594098     -20.2092858
7.808                0.990586412     -20.2401069
7.81                 0.990577194     -20.2712161
7.812                 0.99056811     -20.3023222
7.814                0.990559162     -20.3334252
7.816                0.990550348     -20.3645251
7.818                 0.99054011     -20.3959036
7.82                 0.990529901     -20.4272811
7.822                0.990519721     -20.4586576
7.824                0.990509571     -20.4900331
7.826                0.990498305     -20.5216858
7.828                0.990486945     -20.5533391
7.83                 0.990475492     -20.5849929
7.832                0.990463945     -20.6166472
7.834                  0.9904514     -20.6485719
7.836                 0.99043873     -20.6804972
7.838                0.990425935      -20.712423
7.84                 0.990413014     -20.7443493
7.842                0.990398964     -20.7765489
7.844                 0.99038485     -20.8087483
7.846                0.990370672     -20.8409476
7.848                0.990356431     -20.8731467
7.85                 0.990340696     -20.9056154
7.852                0.990324997     -20.9380825
7.854                0.990309332     -20.9705481
7.856                0.990293703      -21.003012
7.858                0.990276261     -21.0357409
7.86                 0.990258943     -21.0684663
7.862                0.990241747     -21.1011882
7.864                0.990224675     -21.1339067
7.866                0.990205623     -21.1668866
7.868                0.990186712     -21.1998626
7.87                 0.990167943     -21.2328346
7.872                0.990149315     -21.2658026
7.874                0.990128923     -21.2990275
7.876                0.990108577     -21.3322503
7.878                0.990088278      -21.365471
7.88                 0.990068026     -21.3986894
7.882                0.990046404     -21.4321544
7.884                0.990024682     -21.4656195
7.886                0.990002859     -21.4990847
7.888                0.989980936     -21.5325499
7.89                 0.989958032     -21.5662578
7.892                0.989934949     -21.5999667
7.894                0.989911685     -21.6336767
7.896                0.989888241     -21.6673877
7.898                0.989863901     -21.7013386
7.9                  0.989839416       -21.73529
7.902                0.989814787     -21.7692419
7.904                0.989790012     -21.8031944
7.906                0.989764091     -21.8373865
7.908                0.989738141     -21.8715773
7.91                 0.989712162     -21.9057667
7.912                0.989686153     -21.9399546
7.914                0.989658684      -21.974383
7.916                0.989631315     -22.0088076
7.918                0.989604046     -22.0432284
7.92                 0.989576876     -22.0776453
7.922                0.989548093     -22.1123056
7.924                0.989519465      -22.146961
7.926                0.989490992     -22.1816114
7.928                0.989462674     -22.2162567
7.93                 0.989432926     -22.2511421
7.932                0.989403254     -22.2860239
7.934                0.989373659      -22.320902
7.936                0.989344141     -22.3557764
7.938                0.989313701     -22.3908837
7.94                 0.989283172     -22.4259902
7.942                0.989252554     -22.4610958
7.944                0.989221847     -22.4962008
7.946                0.989190819     -22.5315365
7.948                0.989159568     -22.5668739
7.95                 0.989128095     -22.6022131
7.952                0.989096399     -22.6375538
7.954                0.989064673     -22.6731262
7.956                0.989032712     -22.7087005
7.958                0.989000513     -22.7442767
7.96                 0.988968077     -22.7798549
7.962                0.988935521     -22.8156738
7.964                0.988902849     -22.8514921
7.966                0.988870062     -22.8873098
7.968                0.988837159     -22.9231269
7.97                 0.988803726     -22.9591901
7.972                0.988770368     -22.9952489
7.974                0.988737085     -23.0313034
7.976                0.988703877     -23.0673534
7.978                0.988669807     -23.1036632
7.98                 0.988635933     -23.1399666
7.982                0.988602255     -23.1762634
7.984                0.988568774     -23.2125535
7.986                0.988534456      -23.249106
7.988                0.988500279     -23.2856528
7.99                 0.988466244     -23.3221938
7.992                 0.98843235     -23.3587289
7.994                0.988398213     -23.3955282
7.996                0.988364031     -23.4323249
7.998                0.988329805      -23.469119
8                    0.988295536     -23.5059105
8.002                0.988261735     -23.5429616
8.004                0.988227698     -23.5800145
8.006                0.988193423     -23.6170691
8.008                0.988158911     -23.6541254
8.01                 0.988125407     -23.6914512
8.012                0.988091575     -23.7287811
8.014                0.988057414      -23.766115
8.016                0.988022923     -23.8034529
8.018                0.987989498     -23.8410611
8.02                 0.987955842     -23.8786704
8.022                0.987921955     -23.9162808
8.024                0.987887837     -23.9538922
8.026                0.987854257     -23.9918067
8.028                0.987820721     -24.0297163
8.03                 0.987787229     -24.0676209
8.032                 0.98775378     -24.1055207
8.034                 0.98772015     -24.1437388
8.036                0.987686808     -24.1819483
8.038                0.987653753     -24.2201489
8.04                 0.987620986     -24.2583406
8.042                0.987587755     -24.2968666
8.044                0.987554799     -24.3353842
8.046                 0.98752212     -24.3738932
8.048                0.987489717     -24.4123935
8.05                  0.98745736      -24.451238
8.052                0.987425056     -24.4900771
8.054                0.987392804     -24.5289105
8.056                0.987360606     -24.5677383
8.058                0.987329278     -24.6069046
8.06                  0.98729774     -24.6460713
8.062                 0.98726599     -24.6852385
8.064                0.987234028     -24.7244061
8.066                0.987203703     -24.7639189
8.068                0.987172964     -24.8034382
8.07                 0.987141808     -24.8429642
8.072                0.987110233     -24.8824966
8.074                0.987080538     -24.9223715
8.076                0.987050445     -24.9622513
8.078                 0.98701995     -25.0021357
8.08                 0.986989052     -25.0420248
8.082                0.986959451     -25.0822976
8.084                0.986929816     -25.1225655
8.086                0.986900147     -25.1628287
8.088                0.986870444     -25.2030872
8.09                 0.986840667     -25.2437686
8.092                0.986811336     -25.2844381
8.094                 0.98678245     -25.3250956
8.096                0.986754011     -25.3657407
8.098                0.986724623     -25.4068219
8.1                  0.986695781     -25.4478913
8.102                0.986667486     -25.4889487
8.104                 0.98663974     -25.5299937
8.106                0.986611323     -25.5714891
8.108                0.986583142     -25.6129753
8.11                 0.986555195     -25.6544521
8.112                0.986527483     -25.6959194
8.114                0.986500143      -25.737837
8.116                0.986472663     -25.7797519
8.118                0.986445044      -25.821664
8.12                 0.986417285     -25.8635733
8.122                 0.98639097     -25.9059179
8.124                0.986364151     -25.9482727
8.126                0.986336825     -25.9906375
8.128                0.986308987      -26.033012
8.13                 0.986283321     -26.0758159
8.132                0.986256957     -26.1186336
8.134                0.986229888     -26.1614646
8.136                0.986202108     -26.2043087
8.138                0.986176014     -26.2476098
8.14                 0.986149634     -26.2909098
8.142                0.986122966     -26.3342086
8.144                0.986096008     -26.3775062
8.146                0.986068527     -26.4213193
8.148                0.986041721     -26.4651157
8.15                 0.986015591     -26.5088953
8.152                0.985990138     -26.5526576
8.154                0.985961788     -26.5969715
8.156                0.985934597     -26.6412699
8.158                0.985908567     -26.6855517
8.16                 0.985883699     -26.7298157
8.162                0.985855921     -26.7746217
8.164                0.985828778     -26.8194164
8.166                0.985802273     -26.8641995
8.168                0.985776408     -26.9089707
8.17                 0.985749344     -26.9542912
8.172                0.985722271     -26.9996034
8.174                0.985695188     -27.0449074
8.176                0.985668094      -27.090203
8.178                0.985641571     -27.1360069
8.18                 0.985614436     -27.1818269
8.182                0.985586681     -27.2276628
8.184                0.985558299     -27.2735143
8.186                0.985532418      -27.319823
8.188                0.985505194     -27.3661716
8.19                 0.985476606     -27.4125588
8.192                0.985446634     -27.4589832
8.194                0.985419829     -27.5058792
8.196                0.985391828     -27.5527952
8.198                 0.98536262     -27.5997304
8.2                  0.985332193      -27.646684