! TOUCHSTONE file generated by CST DESIGN STUDIO
! Date and time: Mon Feb 10 16:54:11 2025
! Project name: C:\Work\MatlabApps\UnitCellType2OptimizationMatlab\CST\unitcell.cst
! Tree item: Tasks\Sweep1\SPara1\S-Parameters
! Header version: 2024
! Port assignment regex: !\s*Touchstone port\s*([0-9]+)\s*=\s*(CST MWS port|CST DES external port|CST DES block port)\s*(.+)\s* \(\"(.*)\"\)(\s*mode\s*([0-9]+))?.*
! Touchstone port assignment:
! Touchstone port 1 = CST DES external port 1 ("")
# GHz S MA R 50
7                    0.990342626     -6.71773138
7.002                0.990349167     -6.74387656
7.004                0.990355721     -6.76998279
7.006                0.990362288     -6.79605034
7.008                0.990368867     -6.82207948
7.01                 0.990372168     -6.84797628
7.012                0.990374772     -6.87382331
7.014                0.990376685     -6.89962085
7.016                0.990377915     -6.92536921
7.018                0.990376077     -6.95102268
7.02                 0.990374277     -6.97660081
7.022                0.990372516      -7.0021045
7.024                  0.9903708     -7.02753462
7.026                0.990364452     -7.05285981
7.028                0.990358697     -7.07813143
7.03                 0.990353532     -7.10335014
7.032                0.990348952     -7.12851662
7.034                0.990340662     -7.15349387
7.036                0.990332094     -7.17844118
7.038                0.990323251     -7.20335879
7.04                 0.990314136      -7.2282469
7.042                 0.99030384     -7.25292828
7.044                0.990292811     -7.27756246
7.046                0.990281056     -7.30215014
7.048                0.990268579     -7.32669201
7.05                 0.990254968     -7.35106261
7.052                0.990241409     -7.37537584
7.054                0.990227899     -7.39963223
7.056                0.990214437     -7.42383228
7.058                 0.99019899     -7.44784603
7.06                 0.990183738     -7.47182678
7.062                0.990168679     -7.49577472
7.064                0.990153811     -7.51969007
7.066                0.990138242     -7.54338036
7.068                0.990122137     -7.56704354
7.07                 0.990105501     -7.59067977
7.072                0.990088338     -7.61428916
7.074                0.990071644      -7.6377015
7.076                0.990054626     -7.66106468
7.078                0.990037291     -7.68437914
7.08                 0.990019643     -7.70764531
7.082                0.990001583     -7.73074042
7.084                0.989983852     -7.75379253
7.086                0.989966447     -7.77680218
7.088                0.989949369     -7.79976992
7.09                 0.989932008     -7.82252839
7.092                0.989914543     -7.84526604
7.094                0.989896976     -7.86798302
7.096                0.989879307     -7.89067944
7.098                 0.98986336     -7.91315593
7.1                  0.989846731     -7.93560261
7.102                0.989829424     -7.95801995
7.104                0.989811444     -7.98040838
7.106                0.989795814     -8.00262995
7.108                0.989780011     -8.02480524
7.11                 0.989764035     -8.04693472
7.112                0.989747886     -8.06901887
7.114                0.989733185     -8.09095932
7.116                0.989718725     -8.11286863
7.118                0.989704502     -8.13474699
7.12                 0.989690515     -8.15659455
7.122                0.989678566     -8.17827741
7.124                 0.98966627      -8.1999448
7.126                0.989653627      -8.2215968
7.128                0.989640642     -8.24323348
7.13                 0.989631078     -8.26472615
7.132                0.989620979      -8.2861893
7.134                0.989610349      -8.3076231
7.136                0.989599194      -8.3290277
7.138                0.989591107     -8.35033749
7.14                 0.989583049     -8.37161342
7.142                0.989575024     -8.39285591
7.144                0.989567032     -8.41406536
7.146                0.989561522     -8.43517934
7.148                0.989555998     -8.45627673
7.15                 0.989550458     -8.47735768
7.152                0.989544903     -8.49842231
7.154                0.989542897     -8.51938632
7.156                0.989540362     -8.54033214
7.158                0.989537303     -8.56126002
7.16                 0.989533722     -8.58217017
7.162                0.989534336     -8.60303237
7.164                0.989534677      -8.6238586
7.166                0.989534746     -8.64464927
7.168                0.989534544     -8.66540479
7.17                 0.989537595     -8.68616041
7.172                0.989540893     -8.70688538
7.174                0.989544437     -8.72757987
7.176                0.989548224     -8.74824404
7.178                0.989555157     -8.76890441
7.18                 0.989561962     -8.78955248
7.182                 0.98956864     -8.81018832
7.184                0.989575192       -8.830812
7.186                0.989586045      -8.8514455
7.188                0.989596332     -8.87206117
7.19                 0.989606057     -8.89265905
7.192                0.989615225     -8.91323918
7.194                 0.98962869     -8.93387841
7.196                0.989641963     -8.95449005
7.198                0.989655047     -8.97507435
7.2                  0.989667946      -8.9956316
7.202                0.989684086      -9.0162663
7.204                0.989700266     -9.03688458
7.206                0.989716485     -9.05748661
7.208                0.989732744     -9.07807254
7.21                 0.989752254     -9.09873496
7.212                0.989771464     -9.11938542
7.214                0.989790375     -9.14002399
7.216                 0.98980899     -9.16065079
7.218                0.989831258     -9.18138586
7.22                 0.989853284     -9.20209421
7.222                 0.98987507     -9.22277616
7.224                0.989896616       -9.243432
7.226                0.989920863      -9.2642444
7.228                0.989945365     -9.28502749
7.23                  0.98997012     -9.30578147
7.232                0.989995125     -9.32650653
7.234                0.990022165     -9.34739353
7.236                0.990049297     -9.36826705
7.238                 0.99007652      -9.3891272
7.24                 0.990103835     -9.40997406
7.242                0.990133979     -9.43098093
7.244                0.990163667     -9.45197541
7.246                  0.9901929     -9.47295751
7.248                0.990221683     -9.49392721
7.25                 0.990253578      -9.5150924
7.252                0.990285153     -9.53623383
7.254                0.990316414     -9.55735164
7.256                0.990347362     -9.57844597
7.258                 0.99038027     -9.59975565
7.26                 0.990413231     -9.62104664
7.262                0.990446246     -9.64231914
7.264                0.990479316     -9.66357336
7.266                0.990513647     -9.68503086
7.268                0.990547898     -9.70647812
7.27                 0.990582071     -9.72791519
7.272                0.990616166     -9.74934217
7.274                0.990651513     -9.77098015
7.276                0.990686715      -9.7925989
7.278                0.990721772     -9.81419865
7.28                 0.990756686     -9.83577961
7.282                0.990792151     -9.85760096
7.284                0.990827861     -9.87939605
7.286                0.990863813     -9.90116503
7.288                0.990900007     -9.92290809
7.29                 0.990935906     -9.94489341
7.292                0.990972062      -9.9668633
7.294                0.991008473     -9.98881785
7.296                0.991045138     -10.0107571
7.298                0.991081917      -10.032926
7.3                  0.991118412     -10.0550846
7.302                0.991154625     -10.0772331
7.304                0.991190557     -10.0993713
7.306                0.991227196     -10.1217497
7.308                0.991263459     -10.1441076
7.31                  0.99129935      -10.166445
7.312                0.991334871     -10.1887621
7.314                0.991370187     -10.2113347
7.316                0.991405511     -10.2338864
7.318                0.991440843     -10.2564176
7.32                 0.991476185     -10.2789284
7.322                0.991510347     -10.3016736
7.324                0.991544573     -10.3244077
7.326                0.991578861      -10.347131
7.328                0.991613213     -10.3698433
7.33                 0.991646155     -10.3927677
7.332                0.991679047     -10.4156784
7.334                0.991711889     -10.4385755
7.336                0.991744681     -10.4614591
7.338                0.991775666     -10.4845634
7.34                 0.991806853     -10.5076456
7.342                0.991838241      -10.530706
7.344                0.991869827     -10.5537446
7.346                0.991898853     -10.5769987
7.348                0.991928213     -10.6002365
7.35                 0.991957907     -10.6234579
7.352                0.991987933     -10.6466632
7.354                0.992015672      -10.670062
7.356                0.992043303     -10.6934519
7.358                0.992070825     -10.7168329
7.36                 0.992098239     -10.7402051
7.362                0.992124214     -10.7637617
7.364                0.992149806     -10.7873021
7.366                0.992175016     -10.8108265
7.368                0.992199848     -10.8343348
7.37                 0.992222927     -10.8580368
7.372                0.992245914     -10.8817184
7.374                0.992268809     -10.9053799
7.376                0.992291615     -10.9290215
7.378                0.992311696     -10.9528343
7.38                 0.992331875     -10.9766352
7.382                0.992352152     -11.0004244
7.384                0.992372526     -11.0242019
7.386                0.992389884     -11.0481139
7.388                0.992407246     -11.0720162
7.39                 0.992424612     -11.0959087
7.392                0.992441983     -11.1197916
7.394                0.992456264     -11.1438006
7.396                0.992470677     -11.1677923
7.398                0.992485222     -11.1917669
7.4                  0.992499899     -11.2157245
7.402                0.992510997     -11.2398016
7.404                0.992522428     -11.2638627
7.406                0.992534189     -11.2879078
7.408                 0.99254628     -11.3119369
7.41                 0.992554958     -11.3360596
7.412                0.992563671     -11.3601745
7.414                0.992572417     -11.3842816
7.416                0.992581196      -11.408381
7.418                0.992587622     -11.4325547
7.42                 0.992593692      -11.456718
7.422                0.992599409     -11.4808706
7.424                0.992604775     -11.5050128
7.426                0.992608107     -11.5292308
7.428                0.992611216     -11.5534323
7.43                 0.992614106     -11.5776173
7.432                0.992616776      -11.601786
7.434                0.992616815     -11.6260162
7.436                0.992616885     -11.6502353
7.438                0.992616989     -11.6744432
7.44                 0.992617124     -11.6986402
7.442                 0.99261432     -11.7228668
7.444                0.992611521     -11.7470867
7.446                0.992608729        -11.7713
7.448                0.992605941     -11.7955068
7.45                 0.992600331     -11.8197246
7.452                0.992594776     -11.8439298
7.454                0.992589276     -11.8681225
7.456                0.992583828     -11.8923027
7.458                0.992575361     -11.9164907
7.46                 0.992567171     -11.9406637
7.462                0.992559256     -11.9648218
7.464                0.992551616      -11.988965
7.466                0.992541131     -12.0131002
7.468                 0.99253078     -12.0372282
7.47                 0.992520564     -12.0613489
7.472                 0.99251048     -12.0854624
7.474                 0.99249864     -12.1095463
7.476                0.992486502      -12.133625
7.478                0.992474068     -12.1576984
7.48                 0.992461339     -12.1817666
7.482                0.992447771     -12.2058071
7.484                0.992433854     -12.2298369
7.486                0.992419591      -12.253856
7.488                0.992404982     -12.2778646
7.49                 0.992389368     -12.3018448
7.492                0.992373651     -12.3258163
7.494                0.992357832     -12.3497791
7.496                 0.99234191     -12.3737333
7.498                0.992324735     -12.3976394
7.5                   0.99230752     -12.4215417
7.502                0.992290265       -12.44544
7.504                0.992272971     -12.4693344
7.506                0.992254504     -12.4931738
7.508                0.992236025     -12.5170048
7.51                 0.992217534     -12.5408275
7.512                0.992199031      -12.564642
7.514                0.992179311     -12.5884092
7.516                0.992159801     -12.6121629
7.518                0.992140499     -12.6359031
7.52                 0.992121404       -12.65963
7.522                 0.99210113     -12.6833068
7.524                0.992081063     -12.7069759
7.526                0.992061201     -12.7306371
7.528                0.992041543     -12.7542907
7.53                 0.992021656     -12.7778813
7.532                0.992001563     -12.8014701
7.534                0.991981263      -12.825057
7.536                0.991960758     -12.8486422
7.538                0.991941258     -12.8721653
7.54                 0.991921324     -12.8956836
7.542                0.991900959     -12.9191971
7.544                0.991880163     -12.9427058
7.546                0.991860656     -12.9661696
7.548                 0.99184089     -12.9896279
7.55                 0.991820866     -13.0130806
7.552                0.991800584     -13.0365278
7.554                 0.99178128     -13.0599282
7.556                0.991761868     -13.0833269
7.558                0.991742348     -13.1067239
7.56                 0.991722719     -13.1301193
7.562                0.991703967     -13.1534715
7.564                 0.99168517      -13.176819
7.566                0.991666327      -13.200162
7.568                 0.99164744     -13.2235004
7.57                 0.991629292      -13.246812
7.572                0.991611317     -13.2701122
7.574                0.991593514      -13.293401
7.576                0.991575883     -13.3166783
7.578                0.991558773     -13.3399496
7.58                 0.991541943      -13.363212
7.582                 0.99152539     -13.3864655
7.584                0.991509114     -13.4097102
7.586                 0.99149403      -13.432945
7.588                0.991478874     -13.4561789
7.59                 0.991463646     -13.4794118
7.592                0.991448346     -13.5026438
7.594                 0.99143551     -13.5258709
7.596                0.991422233     -13.5490974
7.598                0.991408516     -13.5723231
7.6                   0.99139436      -13.595548
7.602                0.991383222     -13.6187915
7.604                0.991371698     -13.6420322
7.606                0.991359789     -13.6652701
7.608                0.991347495     -13.6885051
7.61                 0.991337859     -13.7117735
7.612                0.991328047     -13.7350415
7.614                 0.99131806      -13.758309
7.616                0.991307898      -13.781576
7.618                0.991299905     -13.8048876
7.62                 0.991291878     -13.8281973
7.622                0.991283814     -13.8515052
7.624                0.991275716     -13.8748113
7.626                0.991269297     -13.8981869
7.628                0.991263072     -13.9215535
7.63                 0.991257039     -13.9449113
7.632                0.991251198     -13.9682602
7.634                0.991246522     -13.9917003
7.636                0.991242219     -14.0151308
7.638                 0.99123829     -14.0385517
7.64                 0.991234732     -14.0619631
7.642                  0.9912326     -14.0854741
7.644                0.991230575     -14.1089831
7.646                0.991228655     -14.1324901
7.648                0.991226842     -14.1559951
7.65                 0.991227572      -14.179602
7.652                0.991227939     -14.2032099
7.654                0.991227946     -14.2268188
7.656                0.991227591     -14.2504287
7.658                0.991230571     -14.2741639
7.66                 0.991233093      -14.297898
7.662                0.991235157     -14.3216307
7.664                0.991236764     -14.3453621
7.666                0.991241392     -14.3692376
7.668                0.991245783     -14.3931127
7.67                 0.991249936     -14.4169875
7.672                0.991253854     -14.4408619
7.674                0.991259941     -14.4648937
7.676                 0.99126602     -14.4889252
7.678                0.991272092     -14.5129564
7.68                 0.991278158     -14.5369873
7.682                0.991285503     -14.5611925
7.684                0.991293101     -14.5853916
7.686                0.991300951     -14.6095846
7.688                0.991309052     -14.6337715
7.69                 0.991317589     -14.6581576
7.692                0.991326607     -14.6825345
7.694                0.991336106     -14.7069022
7.696                0.991346084     -14.7312606
7.698                0.991356342     -14.7558269
7.7                  0.991366902     -14.7803897
7.702                0.991377762     -14.8049488
7.704                0.991388923     -14.8295044
7.706                0.991401295     -14.8542635
7.708                0.991413445     -14.8790237
7.71                 0.991425376     -14.9037848
7.712                0.991437086     -14.9285469
7.714                0.991451001     -14.9535247
7.716                0.991464432     -14.9785017
7.718                0.991477379      -15.003478
7.72                 0.991489846     -15.0284536
7.722                0.991504385     -15.0536592
7.724                0.991518609     -15.0788637
7.726                0.991532518     -15.1040672
7.728                0.991546112     -15.1292696
7.73                 0.991560769     -15.1547075
7.732                0.991575414     -15.1801453
7.734                0.991590046     -15.2055831
7.736                0.991604666     -15.2310209
7.738                0.991619158     -15.2567023
7.74                 0.991633951       -15.28238
7.742                0.991649045      -15.308054
7.744                0.991664439     -15.3337244
7.746                 0.99167861     -15.3596473
7.748                0.991693352     -15.3855625
7.75                 0.991708663     -15.4114699
7.752                0.991724542     -15.4373694
7.754                 0.99173877     -15.4635227
7.756                0.991753474     -15.4896714
7.758                0.991768652     -15.5158152
7.76                 0.991784303     -15.5419543
7.762                0.991799116     -15.5683403
7.764                0.991813874     -15.5947265
7.766                0.991828577     -15.6211129
7.768                0.991843225     -15.6474994
7.77                 0.991858295     -15.6741311
7.772                0.991872885     -15.7007626
7.774                0.991886995     -15.7273938
7.776                0.991900627     -15.7540245
7.778                0.991914963     -15.7809029
7.78                 0.991928867     -15.8077799
7.782                0.991942341     -15.8346554
7.784                0.991955384     -15.8615293
7.786                0.991968284     -15.8886553
7.788                0.991981085     -15.9157808
7.79                 0.991993789      -15.942906
7.792                0.992006396     -15.9700308
7.794                0.992017498     -15.9973968
7.796                0.992028892     -16.0247607
7.798                0.992040575     -16.0521224
7.8                  0.992052548     -16.0794821
7.802                0.992061743     -16.1070871
7.804                0.992071556     -16.1346863
7.806                0.992081984     -16.1622794
7.808                0.992093028     -16.1898663
7.81                 0.992100691     -16.2176923
7.812                0.992108964      -16.245513
7.814                0.992117846     -16.2733286
7.816                0.992127336     -16.3011388
7.818                 0.99213412       -16.32917
7.82                 0.992141015     -16.3572005
7.822                0.992148022     -16.3852302
7.824                 0.99215514     -16.4132593
7.826                0.992161095     -16.4414991
7.828                0.992166595     -16.4697394
7.83                 0.992171643     -16.4979802
7.832                0.992176239     -16.5262213
7.834                0.992180574      -16.554666
7.836                0.992184325     -16.5831103
7.838                0.992187493      -16.611554
7.84                  0.99219008      -16.639997
7.842                0.992192031      -16.668642
7.844                0.992193697     -16.6972868
7.846                0.992195078     -16.7259315
7.848                0.992196174     -16.7545761
7.85                 0.992195293     -16.7834131
7.852                0.992194599     -16.8122489
7.854                0.992194093     -16.8410835
7.856                0.992193774     -16.8699169
7.858                0.992190048     -16.8989339
7.86                 0.992186941     -16.9279463
7.862                0.992184451     -16.9569539
7.864                0.992182578     -16.9859568
7.866                0.992176471     -17.0151362
7.868                0.992171083     -17.0443102
7.87                 0.992166413     -17.0734787
7.872                0.992162459     -17.1026416
7.874                0.992154882     -17.1319655
7.876                0.992147586     -17.1612875
7.878                0.992140573     -17.1906077
7.88                 0.992133841     -17.2199261
7.882                0.992125212     -17.2493853
7.884                0.992116192      -17.278846
7.886                0.992106781     -17.3083081
7.888                0.992096979     -17.3377714
7.89                 0.992086919     -17.3673655
7.892                0.992076112     -17.3969618
7.894                0.992064561     -17.4265604
7.896                0.992052265      -17.456161
7.898                0.992040017     -17.4858851
7.9                  0.992027197     -17.5156113
7.902                0.992013805     -17.5453394
7.904                0.991999841     -17.5750695
7.906                0.991984839     -17.6049188
7.908                 0.99196981     -17.6347678
7.91                 0.991954753     -17.6646167
7.912                0.991939668     -17.6944654
7.914                0.991921892     -17.7244313
7.916                0.991904696     -17.7543932
7.918                0.991888079     -17.7843511
7.92                 0.991872042     -17.8143047
7.922                0.991852146     -17.8443751
7.924                0.991833093     -17.8744397
7.926                0.991814883     -17.9044983
7.928                0.991797514     -17.9345507
7.93                 0.991776636     -17.9647095
7.932                0.991756246     -17.9948648
7.934                0.991736343     -18.0250166
7.936                0.991716928     -18.0551648
7.938                0.991695902     -18.0854018
7.94                 0.991674609     -18.1156402
7.942                0.991653047     -18.1458799
7.944                0.991631216      -18.176121
7.946                0.991610057     -18.2064383
7.948                 0.99158802     -18.2367618
7.95                 0.991565104     -18.2670911
7.952                0.991541309     -18.2974262
7.954                0.991519376     -18.3278326
7.956                0.991496503     -18.3582459
7.958                 0.99147269     -18.3886661
7.96                 0.991447937     -18.4190929
7.962                0.991424399     -18.4495999
7.964                0.991400483     -18.4801091
7.966                0.991376189     -18.5106206
7.968                0.991351517     -18.5411344
7.97                 0.991326031     -18.5717388
7.972                0.991301044     -18.6023395
7.974                0.991276555     -18.6329362
7.976                0.991252564     -18.6635289
7.978                 0.99122578     -18.6942259
7.98                 0.991200042     -18.7249166
7.982                0.991175349     -18.7556006
7.984                0.991151701     -18.7862778
7.986                0.991125033     -18.8170585
7.988                0.991099161     -18.8478339
7.99                 0.991074085      -18.878604
7.992                0.991049804     -18.9093684
7.994                 0.99102445     -18.9402305
7.996                0.990999049     -18.9710921
7.998                0.990973602     -19.0019532
8                    0.990948108     -19.0328139
8.002                0.990924399     -19.0637562
8.004                0.990899755     -19.0947076
8.006                0.990874176      -19.125668
8.008                 0.99084766     -19.1566371
8.01                 0.990825122     -19.1876828
8.012                0.990801223     -19.2187433
8.014                0.990775961     -19.2498183
8.016                0.990749332     -19.2809073
8.018                0.990726802      -19.312079
8.02                 0.990703362     -19.3432584
8.022                0.990679012     -19.3744455
8.024                 0.99065375     -19.4056401
8.026                0.990630128     -19.4369615
8.028                0.990606834     -19.4682795
8.03                 0.990583869     -19.4995942
8.032                0.990561231     -19.5309055
8.034                0.990536867     -19.5623677
8.036                0.990513904     -19.5938236
8.038                0.990492342     -19.6252726
8.04                 0.990472182     -19.6567142
8.042                0.990448905     -19.6883191
8.044                0.990426963     -19.7199189
8.046                0.990406357      -19.751513
8.048                0.990387087     -19.7831009
8.05                 0.990366502     -19.8148599
8.052                0.990346258     -19.8466154
8.054                0.990326355     -19.8783673
8.056                0.990306794     -19.9101155
8.058                0.990289392     -19.9420207
8.06                 0.990271126     -19.9739353
8.062                0.990251997      -20.005859
8.064                0.990232001     -20.0377919
8.066                0.990217559     -20.0698637
8.068                  0.9902013     -20.1019613
8.07                 0.990183217     -20.1340837
8.072                0.990163307     -20.1662303
8.074                0.990150296     -20.1985104
8.076                0.990135546       -20.23081
8.078                0.990119053     -20.2631284
8.08                 0.990100814      -20.295465
8.082                 0.99008689         -20.328
8.084                0.990072874     -20.3605339
8.086                0.990058767     -20.3930664
8.088                0.990044569     -20.4255977
8.09                 0.990029016     -20.4583806
8.092                 0.99001545     -20.4911579
8.094                0.990003874     -20.5239285
8.096                0.989994287     -20.5566917
8.098                0.989979595     -20.5897103
8.1                  0.989967287       -20.62273
8.102                0.989957366     -20.6557494
8.104                0.989949834     -20.6887673
8.106                0.989938609     -20.7220543
8.108                0.989928424     -20.7553377
8.11                 0.989919279     -20.7886171
8.112                0.989911177     -20.8218923
8.114                 0.98990392     -20.8554419
8.116                0.989896052     -20.8889968
8.118                0.989887573     -20.9225568
8.12                 0.989878481     -20.9561218
8.122                 0.98987524     -20.9899112
8.124                0.989869687     -21.0237415
8.126                0.989861812     -21.0576113
8.128                0.989851604     -21.0915195
8.13                 0.989851036     -21.1256134
8.132                0.989847294     -21.1597537
8.134                0.989840364     -21.1939383
8.136                0.989830233     -21.2281652
8.138                0.989827992     -21.2626418
8.14                 0.989824474      -21.297126
8.142                0.989819677     -21.3316175
8.144                0.989813599      -21.366116
8.146                0.989806157     -21.4009542
8.148                0.989801576     -21.4357869
8.15                 0.989799859     -21.4706127
8.152                 0.98980101     -21.5054305
8.154                0.989791427     -21.5405798
8.156                0.989786637     -21.5757532
8.158                0.989786659     -21.6109465
8.16                 0.989791502     -21.6461555
8.162                0.989785868      -21.681665
8.164                0.989782823      -21.717191
8.166                0.989782376     -21.7527322
8.168                0.989784534     -21.7882872
8.17                 0.989783474     -21.8241915
8.172                0.989782336     -21.8600928
8.174                 0.98978112      -21.895991
8.176                0.989779826     -21.9318862
8.178                0.989783433     -21.9680568
8.18                 0.989784158     -22.0042938
8.182                0.989781982     -22.0405952
8.184                0.989776882     -22.0769589
8.186                0.989785796     -22.1134311
8.188                0.989788531     -22.1500288
8.19                 0.989785034     -22.1867451
8.192                0.989775257      -22.223573
8.194                0.989782873     -22.2605521
8.196                0.989785207     -22.2975851
8.198                0.989782233     -22.3346681
8.2                  0.989773932     -22.3717971