! TOUCHSTONE file generated by CST DESIGN STUDIO
! Date and time: Mon Feb 10 16:48:58 2025
! Project name: C:\Work\MatlabApps\UnitCellType2OptimizationMatlab\CST\unitcell.cst
! Tree item: Tasks\Sweep1\SPara1\S-Parameters
! Header version: 2024
! Port assignment regex: !\s*Touchstone port\s*([0-9]+)\s*=\s*(CST MWS port|CST DES external port|CST DES block port)\s*(.+)\s* \(\"(.*)\"\)(\s*mode\s*([0-9]+))?.*
! Touchstone port assignment:
! Touchstone port 1 = CST DES external port 1 ("")
# GHz S MA R 50
7                    0.994822308     -12.9261499
7.002                0.994776038     -12.9406723
7.004                0.994729681      -12.955194
7.006                0.994683237      -12.969715
7.008                0.994636711     -12.9842353
7.01                 0.994651909     -12.9983128
7.012                0.994667171     -13.0123913
7.014                0.994682498     -13.0264707
7.016                0.994697893     -13.0405514
7.018                0.994759503     -13.0570673
7.02                 0.994821297     -13.0735841
7.022                0.994883276     -13.0901018
7.024                0.994945441     -13.1066205
7.026                0.995006202     -13.1267797
7.028                0.995067172     -13.1469395
7.03                  0.99512835     -13.1670999
7.032                0.995189736     -13.1872606
7.034                0.995203371     -13.2097834
7.036                0.995217063     -13.2323066
7.038                0.995230812       -13.25483
7.04                 0.995244617     -13.2773537
7.042                0.995197636     -13.2993718
7.044                0.995150498     -13.3213892
7.046                0.995103203     -13.3434059
7.048                0.995055749     -13.3654216
7.05                 0.994977307     -13.3844636
7.052                0.994898639     -13.4035037
7.054                0.994819745     -13.4225419
7.056                0.994740625     -13.4415784
7.058                0.994682401     -13.4573467
7.06                 0.994624057     -13.4731136
7.062                0.994565589     -13.4888795
7.064                0.994506998     -13.5046444
7.066                0.994506137     -13.5192392
7.068                0.994505307     -13.5338348
7.07                 0.994504503     -13.5484311
7.072                0.994503726     -13.5630281
7.074                0.994556295     -13.5794245
7.076                0.994609022     -13.5958221
7.078                0.994661905     -13.6122209
7.08                 0.994714947     -13.6286209
7.082                  0.9947796     -13.6485595
7.084                0.994844466     -13.6684988
7.086                0.994909545     -13.6884387
7.088                0.994974833     -13.7083795
7.09                  0.99500214     -13.7311848
7.092                0.995029553     -13.7539906
7.094                0.995057072     -13.7767968
7.096                0.995084696     -13.7996035
7.098                0.995051209     -13.8226715
7.1                  0.995017608     -13.8457393
7.102                0.994983899     -13.8688067
7.104                0.994950081     -13.8918738
7.106                0.994874888     -13.9124604
7.108                0.994799469     -13.9330453
7.11                 0.994723827     -13.9536287
7.112                0.994647962     -13.9742104
7.114                0.994579891     -13.9913864
7.116                0.994511664     -14.0085611
7.118                 0.99444328     -14.0257346
7.12                 0.994374742     -14.0429067
7.122                0.994357524     -14.0582432
7.124                0.994340295     -14.0735803
7.126                0.994323054     -14.0889178
7.128                0.994305807      -14.104256
7.13                 0.994346664     -14.1206894
7.132                0.994387647     -14.1371241
7.134                0.994428754     -14.1535601
7.136                0.994469988     -14.1699974
7.138                0.994535216     -14.1897225
7.14                 0.994600653     -14.2094487
7.142                0.994666298     -14.2291759
7.144                 0.99473215     -14.2489038
7.146                0.994771344     -14.2718744
7.148                0.994810682     -14.2948456
7.15                 0.994850164     -14.3178174
7.152                0.994889789     -14.3407897
7.154                0.994870705     -14.3647683
7.156                0.994851564     -14.3887468
7.158                0.994832368     -14.4127254
7.16                 0.994813113     -14.4367037
7.162                0.994744177     -14.4588008
7.164                0.994675031     -14.4808965
7.166                0.994605677      -14.502991
7.168                0.994536114     -14.5250843
7.17                 0.994461111     -14.5437989
7.172                0.994385924     -14.5625118
7.174                0.994310552     -14.5812232
7.176                0.994234995     -14.5999332
7.178                0.994202143      -14.616243
7.18                 0.994169243     -14.6325528
7.182                0.994136292     -14.6488628
7.184                0.994103291      -14.665173
7.186                0.994130528     -14.6818342
7.188                0.994157858     -14.6984967
7.19                  0.99418528     -14.7151606
7.192                0.994212796      -14.731826
7.194                0.994275486     -14.7513968
7.196                0.994338371     -14.7709687
7.198                0.994401449     -14.7905417
7.2                   0.99446472     -14.8101162
7.202                  0.9945137     -14.8331653
7.204                0.994562852     -14.8562152
7.206                0.994612178     -14.8792658
7.208                0.994661678     -14.9023171
7.21                 0.994657466     -14.9270723
7.212                0.994653248      -14.951828
7.214                0.994649029     -14.9765839
7.216                0.994644808       -15.00134
7.218                0.994584949     -15.0248994
7.22                 0.994524906     -15.0484578
7.222                0.994464681     -15.0720153
7.224                0.994404274     -15.0955718
7.226                0.994325654     -15.1159352
7.228                0.994246831      -15.136297
7.23                 0.994167804     -15.1566574
7.232                0.994088576     -15.1770161
7.234                 0.99404161     -15.1945334
7.236                0.993994556     -15.2120505
7.238                0.993947414     -15.2295674
7.24                 0.993900192      -15.247084
7.242                0.993912552     -15.2642117
7.244                0.993924969     -15.2813406
7.246                0.993937443     -15.2984708
7.248                0.993949975     -15.3156023
7.25                 0.994007122     -15.3351365
7.252                0.994064447     -15.3546721
7.254                0.994121947      -15.374209
7.256                0.994179622     -15.3937473
7.258                0.994235761       -15.41685
7.26                 0.994292091     -15.4399536
7.262                0.994348613      -15.463058
7.264                0.994405326     -15.4861634
7.266                0.994415482      -15.511594
7.268                0.994425687     -15.5370251
7.27                 0.994435941     -15.5624567
7.272                 0.99444624     -15.5878886
7.274                 0.99439742     -15.6128489
7.276                0.994348452     -15.6378086
7.278                0.994299338     -15.6627676
7.28                 0.994250077     -15.6877261
7.282                0.994170741       -15.70982
7.284                0.994091188     -15.7319121
7.286                0.994011421     -15.7540028
7.288                0.993931442     -15.7760921
7.29                 0.993871957     -15.7950295
7.292                 0.99381235     -15.8139662
7.294                0.993752619     -15.8329024
7.296                0.993692765     -15.8518381
7.298                 0.99368928     -15.8696724
7.3                  0.993685815     -15.8875079
7.302                 0.99368237     -15.9053445
7.304                0.993678949     -15.9231823
7.306                0.993727638     -15.9428227
7.308                0.993776477     -15.9624646
7.31                 0.993825467     -15.9821081
7.312                0.993874607     -16.0017534
7.314                0.993934983      -16.024904
7.316                 0.99399556     -16.0480556
7.318                0.994056337     -16.0712083
7.32                 0.994117315     -16.0943621
7.322                0.994140876     -16.1203671
7.324                 0.99416453      -16.146373
7.326                0.994188278     -16.1723795
7.328                0.994212123     -16.1983866
7.33                  0.99417588     -16.2246749
7.332                 0.99413953     -16.2509628
7.334                0.994103076     -16.2772505
7.336                0.994066517     -16.3035379
7.338                0.993989318      -16.327415
7.34                 0.993911905     -16.3512908
7.342                0.993834278     -16.3751653
7.344                0.993756438     -16.3990383
7.346                0.993686374     -16.4195928
7.348                0.993616153     -16.4401464
7.35                 0.993545774     -16.4606993
7.352                0.993475239     -16.4812513
7.354                0.993455298     -16.5000367
7.356                0.993435345     -16.5188228
7.358                0.993415374     -16.5376097
7.36                 0.993395384     -16.5563976
7.362                0.993432737     -16.5763079
7.364                0.993470214     -16.5962199
7.366                0.993507812     -16.6161336
7.368                0.993545531     -16.6360489
7.37                  0.99360691     -16.6592586
7.372                0.993668489     -16.6824695
7.374                0.993730267     -16.7056818
7.376                0.993792244     -16.7288954
7.378                0.993827726     -16.7553626
7.38                 0.993863342     -16.7818306
7.382                0.993899092     -16.8082995
7.384                0.993934972     -16.8347692
7.386                0.993912603     -16.8622682
7.388                0.993890177     -16.8897673
7.39                 0.993867695     -16.9172663
7.392                0.993845156     -16.9447654
7.394                0.993773409     -16.9704299
7.396                0.993701454     -16.9960931
7.398                0.993629296     -17.0217551
7.4                  0.993556936      -17.047416
7.402                0.993479353     -17.0697605
7.404                0.993401586     -17.0921038
7.406                0.993323634      -17.114446
7.408                0.993245499     -17.1367871
7.41                 0.993209936     -17.1567887
7.412                0.993174316     -17.1767909
7.414                 0.99313864     -17.1967936
7.416                0.993102911     -17.2167969
7.418                0.993127153     -17.2372078
7.42                 0.993151484     -17.2576203
7.422                0.993175903     -17.2780345
7.424                0.993200416     -17.2984508
7.426                0.993259863     -17.3218176
7.428                0.993319502     -17.3451859
7.43                 0.993379332     -17.3685557
7.432                0.993439352      -17.391927
7.434                0.993484769     -17.4188284
7.436                0.993530351     -17.4457311
7.438                0.993576098     -17.4726348
7.44                 0.993622011     -17.4995394
7.442                0.993613861     -17.5281852
7.444                0.993605702     -17.5568313
7.446                0.993597537     -17.5854776
7.448                0.993589363     -17.6141242
7.45                 0.993525308     -17.6415974
7.452                 0.99346107     -17.6690696
7.454                0.993396651     -17.6965409
7.456                0.993332049      -17.724011
7.458                0.993249303        -17.7483
7.46                  0.99316635     -17.7725877
7.462                0.993083192     -17.7968743
7.464                0.992999827     -17.8211595
7.466                0.992949075     -17.8426315
7.468                0.992898231     -17.8641034
7.47                 0.992847291     -17.8855754
7.472                0.992796256     -17.9070477
7.474                0.992805362     -17.9281822
7.476                0.992814526     -17.9493184
7.478                0.992823742     -17.9704562
7.48                 0.992833012     -17.9915957
7.482                0.992887288     -18.0152152
7.484                0.992941738     -18.0388365
7.486                0.992996364     -18.0624596
7.488                0.993051164     -18.0860845
7.49                 0.993104245     -18.1133759
7.492                0.993157515     -18.1406685
7.494                0.993210973     -18.1679623
7.496                0.993264615     -18.1952575
7.498                 0.99327088     -18.2249511
7.5                  0.993277188     -18.2546451
7.502                 0.99328354     -18.2843397
7.504                0.993289936     -18.3140349
7.506                0.993236217     -18.3432959
7.508                0.993182341     -18.3725562
7.51                 0.993128316     -18.4018159
7.512                 0.99307414     -18.4310749
7.514                0.992989416      -18.457459
7.516                0.992904472     -18.4838416
7.518                0.992819309     -18.5102229
7.52                 0.992733928     -18.5366028
7.522                0.992669459     -18.5598202
7.524                0.992604857     -18.5830374
7.526                0.992540122     -18.6062545
7.528                0.992475256     -18.6294713
7.53                  0.99246782     -18.6516139
7.532                0.992460398     -18.6737581
7.534                 0.99245299     -18.6959037
7.536                0.992445603     -18.7180512
7.538                0.992491359     -18.7420901
7.54                 0.992537266      -18.766131
7.542                0.992583324     -18.7901739
7.544                0.992629534     -18.8142187
7.546                0.992687139     -18.8419081
7.548                0.992744945     -18.8695993
7.55                 0.992802953     -18.8972919
7.552                 0.99286116     -18.9249859
7.554                0.992880931     -18.9556455
7.556                0.992900791      -18.986306
7.558                0.992920742     -19.0169672
7.56                 0.992940782     -19.0476292
7.562                0.992899148      -19.078626
7.564                0.992857404     -19.1096225
7.566                0.992815549     -19.1406185
7.568                 0.99277358     -19.1716139
7.57                 0.992690003     -19.2001761
7.572                0.992606203     -19.2287369
7.574                0.992522181     -19.2572964
7.576                0.992437937     -19.2858545
7.578                0.992361845     -19.3110551
7.58                 0.992285585     -19.3362548
7.582                0.992209156      -19.361454
7.584                0.992132559     -19.3866525
7.586                0.992108196     -19.4100911
7.588                 0.99208381     -19.4335308
7.59                 0.992059399     -19.4569718
7.592                0.992034962      -19.480414
7.594                 0.99206964     -19.5050821
7.596                0.992104442     -19.5297523
7.598                0.992139366     -19.5544246
7.6                  0.992174415     -19.5790991
7.602                0.992233718     -19.6072526
7.604                0.992293225     -19.6354077
7.606                0.992352937     -19.6635646
7.608                 0.99241285     -19.6917234
7.61                 0.992444972     -19.7233153
7.612                0.992477226     -19.7549082
7.614                0.992509614      -19.786502
7.616                0.992542135     -19.8180969
7.618                0.992513906     -19.8508123
7.62                 0.992485607     -19.8835278
7.622                0.992457243     -19.9162431
7.624                0.992428815     -19.9489583
7.626                0.992349115     -19.9798092
7.628                0.992269197     -20.0106587
7.63                 0.992189064     -20.0415069
7.632                0.992108714     -20.0723537
7.634                0.992022916     -20.0997874
7.636                0.991936916     -20.1272202
7.638                0.991850715     -20.1546521
7.64                 0.991764316     -20.1820828
7.642                0.991722389     -20.2071244
7.644                0.991680393     -20.2321668
7.646                0.991638328     -20.2572102
7.648                0.991596202     -20.2822546
7.65                 0.991616796     -20.3077796
7.652                0.991637478     -20.3333068
7.654                0.991658249     -20.3588362
7.656                0.991679108     -20.3843677
7.658                0.991736552     -20.4130588
7.66                 0.991794196     -20.4417522
7.662                0.991852038     -20.4704475
7.664                0.991910078     -20.4991447
7.666                0.991952741     -20.5316115
7.668                0.991995573     -20.5640795
7.67                 0.992038573     -20.5965487
7.672                0.992081739     -20.6290192
7.674                0.992068006     -20.6633846
7.676                0.992054258     -20.6977502
7.678                0.992040497     -20.7321159
7.68                 0.992026717     -20.7664816
7.682                0.991954087     -20.7996706
7.684                0.991881259     -20.8328584
7.686                0.991808234      -20.866045
7.688                0.991735011     -20.8992303
7.69                 0.991642612     -20.9291273
7.692                0.991549984     -20.9590226
7.694                0.991457129     -20.9889166
7.696                0.991364048     -21.0188093
7.698                0.991305356     -21.0457909
7.7                  0.991246553     -21.0727728
7.702                0.991187638     -21.0997552
7.704                 0.99112861      -21.126738
7.706                0.991133068      -21.153427
7.708                0.991137575      -21.180118
7.71                 0.991142133     -21.2068112
7.712                0.991146743     -21.2335066
7.714                0.991198926     -21.2628998
7.716                0.991251291     -21.2922952
7.718                 0.99130384     -21.3216928
7.72                 0.991356572     -21.3510931
7.722                 0.99140734     -21.3844534
7.724                0.991458304     -21.4178152
7.726                0.991509463     -21.4511784
7.728                0.991560818     -21.4845432
7.73                 0.991561669     -21.5205324
7.732                0.991562554     -21.5565223
7.734                0.991563478     -21.5925126
7.736                 0.99156444     -21.6285034
7.738                0.991501307     -21.6640898
7.74                 0.991438003     -21.6996753
7.742                 0.99137453     -21.7352597
7.744                0.991310888      -21.770843
7.746                0.991214682     -21.8034203
7.748                0.991118232      -21.835996
7.75                 0.991021537     -21.8685701
7.752                0.990924598     -21.9011424
7.754                0.990849983     -21.9303983
7.756                0.990775211      -21.959654
7.758                0.990700282     -21.9889097
7.76                 0.990625198     -22.0181653
7.762                0.990611588     -22.0463443
7.764                0.990597992     -22.0745251
7.766                0.990584403     -22.1027079
7.768                0.990570821     -22.1308925
7.77                 0.990614166     -22.1611861
7.772                0.990657674     -22.1914822
7.774                0.990701343     -22.2217807
7.776                0.990745171     -22.2520817
7.778                0.990801132     -22.2863805
7.78                 0.990857305      -22.320681
7.782                0.990913692     -22.3549832
7.784                0.990970289     -22.3892874
7.786                0.990985322     -22.4268663
7.788                0.991000444     -22.4644459
7.79                 0.991015657     -22.5020262
7.792                0.991030954     -22.5396071
7.794                0.990979571     -22.5776226
7.796                0.990928057     -22.6156372
7.798                0.990876414     -22.6536509
7.8                  0.990824641     -22.6916637
7.802                0.990727816     -22.7271192
7.804                0.990630734     -22.7625726
7.806                0.990533398     -22.7980243
7.808                0.990435808     -22.8334741
7.81                 0.990346965     -22.8653555
7.812                0.990257924     -22.8972362
7.814                0.990168684     -22.9291162
7.816                0.990079246     -22.9609955
7.818                0.990046364     -22.9910352
7.82                 0.990013442     -23.0210766
7.822                 0.98998048     -23.0511195
7.824                0.989947482     -23.0811642
7.826                0.989978668     -23.1126213
7.828                0.990009983      -23.144081
7.83                 0.990041428     -23.1755434
7.832                0.990073005     -23.2070087
7.834                0.990130926     -23.2423445
7.836                0.990189067     -23.2776824
7.838                0.990247428     -23.3130223
7.84                  0.99030601     -23.3483642
7.842                0.990334209     -23.3875441
7.844                0.990362545     -23.4267251
7.846                0.990391019      -23.465907
7.848                0.990419633     -23.5050899
7.85                 0.990381729     -23.5455855
7.852                0.990343742     -23.5860805
7.854                0.990305673     -23.6265748
7.856                 0.99026752     -23.6670684
7.858                0.990173054     -23.7056037
7.86                 0.990078336     -23.7441369
7.862                0.989983365     -23.7826681
7.864                0.989888143     -23.8211971
7.866                0.989786833     -23.8560596
7.868                0.989685284     -23.8909208
7.87                 0.989583495     -23.9257806
7.872                0.989481467     -23.9606392
7.874                0.989428109     -23.9929481
7.876                0.989374664     -24.0252577
7.878                0.989321128     -24.0575684
7.88                 0.989267501     -24.0898802
7.882                 0.98928284     -24.1227977
7.884                0.989298272     -24.1557179
7.886                0.989313795     -24.1886407
7.888                0.989329408     -24.2215662
7.89                 0.989385397     -24.2580671
7.892                0.989441602     -24.2945703
7.894                0.989498024     -24.3310759
7.896                0.989554662     -24.3675841
7.898                0.989594383       -24.40836
7.9                  0.989634286     -24.4491371
7.902                0.989674371     -24.4899154
7.904                0.989714631     -24.5306951
7.906                0.989691842     -24.5736752
7.908                0.989669028     -24.6166549
7.91                 0.989646188      -24.659634
7.912                0.989623322     -24.7026127
7.914                0.989535099     -24.7443894
7.916                0.989446634      -24.786164
7.918                0.989357934     -24.8279364
7.92                 0.989268999     -24.8697067
7.922                0.989158559     -24.9079164
7.924                0.989047846     -24.9461239
7.926                 0.98893686     -24.9843295
7.928                0.988825602     -25.0225331
7.93                 0.988752327     -25.0575866
7.932                0.988678907     -25.0926406
7.934                0.988605343     -25.1276948
7.936                 0.98853164     -25.1627495
7.938                0.988528503     -25.1975646
7.94                 0.988525411     -25.2323822
7.942                0.988522365     -25.2672023
7.944                 0.98851937     -25.3020253
7.946                0.988569356     -25.3399579
7.948                0.988619544     -25.3778932
7.95                 0.988669933     -25.4158311
7.952                0.988720523     -25.4537717
7.954                0.988768835     -25.4962553
7.956                0.988817361     -25.5387406
7.958                0.988866102     -25.5812274
7.96                 0.988915057     -25.6237156
7.962                0.988907295       -25.66926
7.964                0.988899564      -25.714804
7.966                0.988891865     -25.7603478
7.968                0.988884197     -25.8058911
7.97                 0.988804311     -25.8510881
7.972                0.988724216     -25.8962828
7.974                0.988643913     -25.9414753
7.976                0.988563399     -25.9866651
7.978                0.988446069     -26.0285643
7.98                 0.988328439     -26.0704608
7.982                0.988210509     -26.1123547
7.984                0.988092279     -26.1542458
7.986                0.987999028     -26.1924941
7.988                 0.98790558     -26.2307415
7.99                 0.987811931     -26.2689884
7.992                0.987718082     -26.3072347
7.994                0.987693568     -26.3443557
7.996                0.987669051     -26.3814787
7.998                0.987644526     -26.4186039
8                    0.987619994     -26.4557313
8.002                0.987659941     -26.4953534
8.004                0.987700063     -26.5349784
8.006                0.987740362     -26.5746062
8.008                0.987780836     -26.6142369
8.01                  0.98783515     -26.6585329
8.012                0.987889705     -26.7028315
8.014                  0.9879445     -26.7471318
8.016                0.987999528     -26.7914341
8.018                0.988007292     -26.8395927
8.02                 0.988015151      -26.887751
8.022                0.988023104     -26.9359091
8.024                0.988031152     -26.9840671
8.026                0.987963069     -27.0328634
8.028                0.987894813     -27.0816574
8.03                 0.987826392      -27.130449
8.032                0.987757795     -27.1792377
8.034                0.987637434     -27.2252233
8.036                0.987516757     -27.2712054
8.038                0.987395764     -27.3171842
8.04                 0.987274455     -27.3631595
8.042                0.987162742     -27.4051631
8.044                0.987050772     -27.4471652
8.046                0.986938546     -27.4891656
8.048                0.986826065     -27.5311644
8.05                 0.986777984      -27.571167
8.052                0.986729846     -27.6111708
8.054                0.986681641     -27.6511761
8.056                0.986633379     -27.6911831
8.058                0.986658613     -27.7329149
8.06                 0.986683985     -27.7746496
8.062                0.986709496     -27.8163872
8.064                0.986735145     -27.8581277
8.066                0.986791102     -27.9044573
8.068                0.986847309     -27.9507891
8.07                 0.986903766     -27.9971229
8.072                0.986960464     -28.0434596
8.074                0.986982184     -28.0943614
8.076                0.987004058     -28.1452631
8.078                0.987026084     -28.1961646
8.08                  0.98704826     -28.2470661
8.082                0.986993567     -28.2996317
8.084                0.986938762     -28.3521947
8.086                0.986883847     -28.4047551
8.088                0.986828819     -28.4573129
8.09                 0.986708418      -28.507753
8.092                0.986587687     -28.5581887
8.094                0.986466636     -28.6086201
8.096                0.986345265     -28.6590467
8.098                0.986216473     -28.7053543
8.1                  0.986087369      -28.751659
8.102                0.985957954     -28.7979607
8.104                0.985828229     -28.8442594
8.106                0.985754652      -28.887721
8.108                0.985680944     -28.9311829
8.11                 0.985607102     -28.9746453
8.112                0.985533126     -29.0181082
8.114                0.985539004     -29.0624153
8.116                0.985544989     -29.1067253
8.118                0.985551063     -29.1510382
8.12                 0.985557227      -29.195354
8.122                0.985610195     -29.2439788
8.124                0.985663406     -29.2926058
8.126                 0.98571686     -29.3412349
8.128                0.985770558     -29.3898663
8.13                  0.98580426       -29.44365
8.132                0.985838164     -29.4974343
8.134                0.985872274     -29.5512185
8.136                0.985906577     -29.6050031
8.138                 0.98586683     -29.6615229
8.14                 0.985827037     -29.7180398
8.142                0.985787199     -29.7745538
8.144                0.985747315     -29.8310649
8.146                0.985630457     -29.8863053
8.148                 0.98551329     -29.9415406
8.15                 0.985395819     -29.9967708
8.152                0.985278042     -30.0519959
8.154                0.985134844     -30.1031734
8.156                 0.98499128     -30.1543454
8.158                0.984847357      -30.205513
8.16                 0.984703078     -30.2566757
8.162                 0.98460356     -30.3042558
8.164                0.984503835      -30.351835
8.166                0.984403905     -30.3994133
8.168                0.984303769     -30.4469907
8.17                 0.984286969     -30.4944477
8.172                0.984270208      -30.541907
8.174                0.984253474     -30.5893687
8.176                 0.98423678     -30.6368333
8.178                0.984282797     -30.6881589
8.18                 0.984329037     -30.7394868
8.182                  0.9843755     -30.7908171
8.184                0.984422185     -30.8421499
8.186                0.984466047     -30.8990846
8.188                0.984510157     -30.9560192
8.19                 0.984554517     -31.0129537
8.192                0.984599125     -31.0698881
8.194                0.984575764     -31.1306696
8.196                0.984552424     -31.1914485
8.198                0.984529116     -31.2522238
8.2                  0.984505832     -31.3129957