! TOUCHSTONE file generated by CST DESIGN STUDIO
! Date and time: Mon Feb 10 16:49:04 2025
! Project name: C:\Work\MatlabApps\UnitCellType2OptimizationMatlab\CST\unitcell.cst
! Tree item: Tasks\Sweep1\SPara1\S-Parameters
! Header version: 2024
! Port assignment regex: !\s*Touchstone port\s*([0-9]+)\s*=\s*(CST MWS port|CST DES external port|CST DES block port)\s*(.+)\s* \(\"(.*)\"\)(\s*mode\s*([0-9]+))?.*
! Touchstone port assignment:
! Touchstone port 1 = CST DES external port 1 ("")
# GHz S MA R 50
7                    0.991721357     -10.0898299
7.002                0.991682471     -10.1073717
7.004                0.991643146     -10.1249013
7.006                0.991603385     -10.1424189
7.008                0.991563192     -10.1599246
7.01                 0.991550686     -10.1758346
7.012                0.991538146     -10.1917315
7.014                0.991525573     -10.2076155
7.016                 0.99151297     -10.2234866
7.018                0.991539386     -10.2395513
7.02                 0.991565984     -10.2556124
7.022                0.991592765     -10.2716696
7.024                0.991619728     -10.2877232
7.026                0.991669621      -10.305642
7.028                0.991719626     -10.3235592
7.03                  0.99176974     -10.3414748
7.032                0.991819964     -10.3593887
7.034                0.991860988     -10.3795673
7.036                0.991902145     -10.3997371
7.038                0.991943434      -10.419898
7.04                 0.991984856     -10.4400503
7.042                0.991990957     -10.4613209
7.044                0.991997144     -10.4825829
7.046                0.992003417     -10.5038364
7.048                0.992009773     -10.5250814
7.05                 0.991979695     -10.5455226
7.052                0.991949361     -10.5659593
7.054                0.991918768     -10.5863916
7.056                0.991887919     -10.6068195
7.058                0.991845987     -10.6251303
7.06                 0.991803626     -10.6434322
7.062                0.991760841     -10.6617254
7.064                0.991717633     -10.6800101
7.066                0.991696493     -10.6964463
7.068                0.991675231     -10.7128704
7.07                 0.991653847     -10.7292825
7.072                0.991632341     -10.7456828
7.074                0.991649762     -10.7618732
7.076                0.991667346     -10.7780584
7.078                0.991685091     -10.7942385
7.08                 0.991702999     -10.8104136
7.082                0.991749139     -10.8281864
7.084                0.991795411     -10.8459589
7.086                0.991841814      -10.863731
7.088                0.991888349     -10.8815029
7.09                 0.991932709     -10.9015947
7.092                0.991977174     -10.9216806
7.094                0.992021745     -10.9417607
7.096                0.992066422     -10.9618351
7.098                0.992079645     -10.9833782
7.1                  0.992092967     -11.0049132
7.102                0.992106394     -11.0264401
7.104                0.992119924      -11.047959
7.106                0.992094705     -11.0690809
7.108                0.992069334     -11.0901985
7.11                 0.992043811     -11.1113119
7.112                0.992018137     -11.1324211
7.114                 0.99197439     -11.1515785
7.116                0.991930257     -11.1707299
7.118                0.991885738     -11.1898753
7.12                 0.991840837     -11.2090147
7.122                 0.99181154     -11.2261057
7.124                0.991782045     -11.2431863
7.126                0.991752351     -11.2602566
7.128                0.991722464     -11.2773166
7.13                 0.991730181     -11.2937577
7.132                0.991738016     -11.3101925
7.134                0.991745971     -11.3266212
7.136                0.991754043     -11.3430437
7.138                0.991794911     -11.3607394
7.14                 0.991835935     -11.3784351
7.142                0.991877112     -11.3961307
7.144                0.991918443     -11.4138262
7.146                0.991964868     -11.4338282
7.148                0.992011388     -11.4538271
7.15                 0.992058002     -11.4738229
7.152                0.992104711     -11.4938156
7.154                0.992124971     -11.5155854
7.156                0.992145331     -11.5373478
7.158                0.992165792     -11.5591031
7.16                 0.992186352     -11.5808513
7.162                0.992167221     -11.6026304
7.164                 0.99214802     -11.6244051
7.166                0.992128751     -11.6461755
7.168                0.992109412     -11.6679415
7.17                 0.992065565     -11.6879975
7.172                0.992021388     -11.7080493
7.174                0.991976886      -11.728097
7.176                 0.99193206     -11.7481406
7.178                 0.99189569     -11.7660105
7.18                 0.991859067     -11.7838719
7.182                0.991822191     -11.8017248
7.184                0.991785065     -11.8195695
7.186                0.991782922     -11.8363976
7.188                0.991780839     -11.8532188
7.19                 0.991778816      -11.870033
7.192                0.991776852     -11.8868405
7.194                0.991811243      -11.904553
7.196                  0.9918458     -11.9222649
7.198                0.991880525     -11.9399762
7.2                  0.991915418     -11.9576872
7.202                0.991962633     -11.9776141
7.204                0.992009948     -11.9975399
7.206                0.992057362     -12.0174646
7.208                0.992104876     -12.0373882
7.21                 0.992131944     -12.0593484
7.212                  0.9921591     -12.0813029
7.214                0.992186348     -12.1032515
7.216                0.992213686     -12.1251943
7.218                0.992201787     -12.1476085
7.22                 0.992189876     -12.1700179
7.222                0.992177954     -12.1924227
7.224                0.992166021     -12.2148228
7.226                0.992123965     -12.2358244
7.228                0.992081654     -12.2568231
7.23                 0.992039088     -12.2778189
7.232                0.991996266     -12.2988116
7.234                0.991954283     -12.3175864
7.236                0.991912018     -12.3363548
7.238                0.991869471     -12.3551168
7.24                 0.991826648     -12.3738725
7.242                0.991814792     -12.3912506
7.244                0.991802927     -12.4086216
7.246                0.991791054     -12.4259857
7.248                0.991779172     -12.4433428
7.25                 0.991805948     -12.4611983
7.252                0.991832892     -12.4790524
7.254                0.991860003     -12.4969049
7.256                0.991887279     -12.5147559
7.258                0.991933726     -12.5346622
7.26                 0.991980289     -12.5545688
7.262                0.992026967     -12.5744755
7.264                0.992073761     -12.5943825
7.266                 0.99210678     -12.6165228
7.268                 0.99213988     -12.6386589
7.27                  0.99217306     -12.6607908
7.272                0.992206317     -12.6829185
7.274                 0.99220216     -12.7059426
7.276                0.992198026     -12.7289617
7.278                0.992193916      -12.751976
7.28                 0.992189831     -12.7749855
7.282                0.992151015     -12.7969631
7.284                0.992112011     -12.8189382
7.286                0.992072821     -12.8409109
7.288                0.992033446     -12.8628811
7.29                 0.991987155     -12.8826691
7.292                0.991940576     -12.9024524
7.294                0.991893712     -12.9222313
7.296                0.991846562     -12.9420057
7.298                0.991825177     -12.9600874
7.3                  0.991803716     -12.9781625
7.302                0.991782178      -12.996231
7.304                0.991760566      -13.014293
7.306                0.991778641     -13.0324228
7.308                0.991796863       -13.05055
7.31                 0.991815233     -13.0686746
7.312                0.991833752     -13.0867969
7.314                0.991877758     -13.1067415
7.316                0.991921901     -13.1266869
7.318                0.991966181     -13.1466331
7.32                 0.992010596     -13.1665801
7.322                0.992048493      -13.188888
7.324                0.992086465     -13.2111936
7.326                0.992124513     -13.2334966
7.328                0.992162637      -13.255797
7.33                 0.992166477     -13.2794017
7.332                0.992170356     -13.3030015
7.334                0.992174276     -13.3265966
7.336                0.992178235      -13.350187
7.338                0.992143999     -13.3731544
7.34                  0.99210964     -13.3961194
7.342                0.992075159     -13.4190819
7.344                0.992040554     -13.4420419
7.346                0.991991341     -13.4629366
7.348                0.991941858     -13.4838284
7.35                 0.991892104     -13.5047172
7.352                0.991842081     -13.5256031
7.354                0.991811511     -13.5445343
7.356                0.991780807     -13.5634596
7.358                0.991749966     -13.5823791
7.36                 0.991718988      -13.601293
7.362                0.991727317     -13.6198298
7.364                0.991735761     -13.6383629
7.366                0.991744316     -13.6568926
7.368                0.991752982     -13.6754188
7.37                 0.991792807     -13.6954631
7.372                0.991832789      -13.715508
7.374                0.991872926     -13.7355537
7.376                0.991913218     -13.7556001
7.378                0.991954752     -13.7780538
7.38                 0.991996367     -13.8005064
7.382                0.992038062      -13.822958
7.384                0.992079835     -13.8454087
7.386                0.992091859     -13.8695373
7.388                0.992103928     -13.8936616
7.39                 0.992116042     -13.9177815
7.392                0.992128201     -13.9418972
7.394                0.992100245     -13.9658396
7.396                0.992072215     -13.9897792
7.398                0.992044113      -14.013716
7.4                  0.992015941       -14.03765
7.402                0.991965906     -14.0597319
7.404                0.991915633     -14.0818117
7.406                0.991865123     -14.1038897
7.408                0.991814375     -14.1259656
7.41                 0.991775909     -14.1459039
7.412                0.991737261     -14.1658375
7.414                0.991698429     -14.1857665
7.416                0.991659417     -14.2056911
7.418                0.991657758     -14.2248091
7.42                 0.991656163      -14.243923
7.422                0.991654631     -14.2630328
7.424                0.991653165     -14.2821386
7.426                0.991687378     -14.3024035
7.428                0.991721759     -14.3226684
7.43                 0.991756308     -14.3429334
7.432                0.991791025     -14.3631985
7.434                0.991834676     -14.3858399
7.436                0.991878423     -14.4084816
7.438                0.991922265     -14.4311234
7.44                 0.991966203     -14.4537653
7.442                0.991985943     -14.4784088
7.444                0.992005726     -14.5030487
7.446                0.992025553     -14.5276851
7.448                0.992045424     -14.5523179
7.45                 0.992024506     -14.5772431
7.452                0.992003554     -14.6021649
7.454                0.991982567     -14.6270835
7.456                0.991961544     -14.6519987
7.458                0.991912056     -14.6753349
7.46                 0.991862372     -14.6986696
7.462                0.991812492     -14.7220028
7.464                0.991762416     -14.7453347
7.466                0.991716787     -14.7664208
7.468                0.991670945     -14.7875033
7.47                 0.991624891     -14.8085825
7.472                0.991578627     -14.8296584
7.474                0.991566443     -14.8495114
7.476                0.991554268       -14.86936
7.478                0.991542099     -14.8892042
7.48                 0.991529937     -14.9090441
7.482                0.991556953     -14.9296328
7.484                0.991584138     -14.9502206
7.486                 0.99161149     -14.9708077
7.488                0.991639011     -14.9913939
7.49                 0.991683227     -15.0142441
7.492                0.991727561      -15.037095
7.494                0.991772012     -15.0599467
7.496                0.991816581     -15.0827994
7.498                0.991843618     -15.1079219
7.5                  0.991870699     -15.1330418
7.502                0.991897824     -15.1581592
7.504                0.991924995      -15.183274
7.506                0.991912276     -15.2091609
7.508                0.991899542     -15.2350442
7.51                 0.991886795     -15.2609239
7.512                0.991874036     -15.2867999
7.514                0.991827033     -15.3114602
7.516                0.991779876     -15.3361189
7.518                0.991732567     -15.3607761
7.52                 0.991685106     -15.3854319
7.522                 0.99163375     -15.4078208
7.524                 0.99158217     -15.4302075
7.526                0.991530368      -15.452592
7.528                0.991478345     -15.4749743
7.53                 0.991455506     -15.4957555
7.532                0.991432615     -15.5165324
7.534                0.991409671     -15.5373052
7.536                 0.99138668     -15.5580739
7.538                0.991404889     -15.5791366
7.54                 0.991423251     -15.6001975
7.542                0.991441765     -15.6212565
7.544                0.991460432     -15.6423136
7.546                0.991503103      -15.665431
7.548                0.991545919     -15.6885495
7.55                 0.991588879     -15.7116689
7.552                0.991631983     -15.7347892
7.554                 0.99166512     -15.7603708
7.556                0.991698306      -15.785951
7.558                0.991731541     -15.8115298
7.56                 0.991764825      -15.837107
7.562                 0.99176076     -15.8639179
7.564                0.991756692      -15.890725
7.566                0.991752621     -15.9175282
7.568                0.991748546     -15.9443276
7.57                 0.991705793     -15.9703302
7.572                0.991662929     -15.9963309
7.574                0.991619953     -16.0223296
7.576                0.991576867     -16.0483265
7.578                0.991521522     -16.0721381
7.58                  0.99146596     -16.0959481
7.582                0.991410181     -16.1197567
7.584                0.991354187      -16.143564
7.586                0.991321301     -16.1654547
7.588                 0.99128831     -16.1873416
7.59                 0.991255213      -16.209225
7.592                0.991222011     -16.2311048
7.594                0.991230495     -16.2528116
7.596                0.991239101     -16.2745155
7.598                0.991247831     -16.2962166
7.6                  0.991256684      -16.317915
7.602                0.991296172     -16.3413963
7.604                0.991335828      -16.364878
7.606                0.991375655     -16.3883602
7.608                 0.99141565     -16.4118432
7.61                 0.991453691     -16.4379056
7.612                0.991491796     -16.4639675
7.614                0.991529966     -16.4900289
7.616                0.991568199     -16.5160898
7.618                0.991572964     -16.5438229
7.62                 0.991577723     -16.5715525
7.622                0.991582482     -16.5992784
7.624                 0.99158724     -16.6270007
7.626                0.991550099      -16.654396
7.628                0.991512875     -16.6817886
7.63                 0.991475571     -16.7091786
7.632                0.991438187      -16.736566
7.634                 0.99138025     -16.7619309
7.636                0.991322116     -16.7872949
7.638                0.991263784     -16.8126579
7.64                 0.991205257     -16.8380199
7.642                0.991162498     -16.8612092
7.644                 0.99111959     -16.8843957
7.646                0.991076532     -16.9075794
7.648                0.991033329     -16.9307602
7.65                 0.991030774     -16.9532805
7.652                0.991028298     -16.9757973
7.654                0.991025901     -16.9983105
7.656                0.991023583     -17.0208203
7.658                0.991057731     -17.0447563
7.66                 0.991092069     -17.0686921
7.662                0.991126595     -17.0926275
7.664                0.991161309     -17.1165625
7.666                 0.99120269     -17.1431027
7.668                 0.99124416     -17.1696432
7.67                 0.991285719     -17.1961839
7.672                0.991327365     -17.2227248
7.674                0.991341039     -17.2513389
7.676                0.991354711     -17.2799497
7.678                 0.99136838     -17.3085572
7.68                 0.991382044     -17.3371616
7.682                0.991352202     -17.3659514
7.684                0.991322299     -17.3947377
7.686                0.991292336     -17.4235206
7.688                0.991262312     -17.4523001
7.69                 0.991204022     -17.4793297
7.692                 0.99114556     -17.5063582
7.694                0.991086927     -17.5333856
7.696                0.991028124      -17.560412
7.698                0.990976762     -17.5851012
7.7                  0.990925221     -17.6097884
7.702                0.990873501     -17.6344735
7.704                0.990821602     -17.6591567
7.706                0.990807484     -17.6827114
7.708                0.990793393     -17.7062622
7.71                 0.990779329     -17.7298092
7.712                0.990765294     -17.7533523
7.714                0.990792262     -17.7778969
7.716                0.990819425       -17.80244
7.718                0.990846785     -17.8269814
7.72                 0.990874341     -17.8515215
7.722                 0.99091718     -17.8785974
7.724                0.990960141     -17.9056737
7.726                0.991003225     -17.9327505
7.728                0.991046432     -17.9598276
7.73                 0.991068369     -17.9893211
7.732                0.991090303     -18.0188122
7.734                0.991112235     -18.0483008
7.736                0.991134165     -18.0777868
7.738                0.991112675     -18.1079895
7.74                 0.991091129      -18.138188
7.742                0.991069527     -18.1683823
7.744                0.991047871     -18.1985725
7.746                 0.99099103     -18.2273683
7.748                0.990934048     -18.2561624
7.75                 0.990876923     -18.2849549
7.752                0.990819655     -18.3137456
7.754                0.990760802     -18.3401255
7.756                0.990701755     -18.3665041
7.758                0.990642514     -18.3928813
7.76                 0.990583081     -18.4192572
7.762                0.990556945     -18.4440658
7.764                0.990530784     -18.4688703
7.766                0.990504593     -18.4936709
7.768                0.990478374     -18.5184677
7.77                 0.990496287     -18.5437891
7.772                0.990514393     -18.5691075
7.774                0.990532688     -18.5944229
7.776                0.990551172     -18.6197353
7.778                0.990593376     -18.6474186
7.78                 0.990635745      -18.675102
7.782                0.990678278     -18.7027855
7.784                0.990720975      -18.730469
7.786                 0.99075031     -18.7608371
7.788                0.990779654     -18.7912034
7.79                 0.990809005      -18.821568
7.792                 0.99083836     -18.8519308
7.794                0.990826094     -18.8835466
7.796                0.990813767     -18.9151577
7.798                0.990801378      -18.946764
7.8                  0.990788928     -18.9783657
7.802                0.990735546     -19.0090149
7.804                0.990682039     -19.0396612
7.806                0.990628412     -19.0703048
7.808                0.990574664     -19.1009457
7.81                 0.990509963      -19.129213
7.812                0.990445069     -19.1574792
7.814                0.990379982     -19.1857443
7.816                0.990314703     -19.2140084
7.818                0.990276565     -19.2403118
7.82                 0.990238347     -19.2666115
7.822                0.990200046     -19.2929077
7.824                0.990161667     -19.3192002
7.826                0.990168931     -19.3455035
7.828                0.990176362     -19.3718024
7.83                 0.990183962     -19.3980968
7.832                0.990191734      -19.424387
7.834                0.990231149     -19.4527863
7.836                0.990270775     -19.4811846
7.838                0.990310609     -19.5095818
7.84                 0.990350654     -19.5379779
7.842                0.990386107     -19.5692511
7.844                0.990421591     -19.6005235
7.846                0.990457106     -19.6317946
7.848                0.990492651     -19.6630646
7.85                 0.990490098     -19.6961127
7.852                0.990487467     -19.7291559
7.854                0.990484759     -19.7621943
7.856                0.990481973     -19.7952277
7.858                0.990433757     -19.8278195
7.86                 0.990385428     -19.8604071
7.862                0.990336986     -19.8929906
7.864                 0.99028843     -19.9255699
7.866                0.990219404     -19.9559132
7.868                0.990150195     -19.9862552
7.87                 0.990080803     -20.0165961
7.872                0.990011229     -20.0469356
7.874                0.989961061     -20.0749878
7.876                0.989910769     -20.1030365
7.878                 0.98986035     -20.1310822
7.88                 0.989809804     -20.1591248
7.882                0.989804636     -20.1866237
7.884                0.989799602      -20.214117
7.886                  0.9897947     -20.2416045
7.888                0.989789928     -20.2690864
7.89                 0.989824074     -20.2983202
7.892                0.989858474     -20.3275513
7.894                0.989893128     -20.3567795
7.896                0.989928035     -20.3860049
7.898                0.989968044      -20.418199
7.9                  0.990008125     -20.4503921
7.902                0.990048278     -20.4825843
7.904                  0.9900885     -20.5147758
7.906                0.990096127      -20.549241
7.908                0.990103658     -20.5837016
7.91                 0.990111093     -20.6181575
7.912                0.990118432     -20.6526086
7.914                0.990077775      -20.687201
7.916                0.990036989     -20.7217877
7.918                 0.98999608     -20.7563688
7.92                 0.989955047     -20.7909443
7.922                0.989884368     -20.8235554
7.924                0.989813518     -20.8561644
7.926                  0.9897425     -20.8887712
7.928                0.989671314     -20.9213759
7.93                 0.989610421     -20.9514694
7.932                0.989549371     -20.9815603
7.934                0.989488164     -21.0116486
7.936                0.989426802     -21.0417342
7.938                0.989408335     -21.0707388
7.94                 0.989389954     -21.0997367
7.942                0.989371659     -21.1287279
7.944                0.989353454     -21.1577127
7.946                0.989379865     -21.1880024
7.948                 0.98940657     -21.2182869
7.95                 0.989433567      -21.248566
7.952                0.989460858     -21.2788396
7.954                0.989502963     -21.3120616
7.956                0.989545204     -21.3452822
7.958                0.989587582     -21.3785013
7.96                 0.989630095      -21.411719
7.962                0.989647033     -21.4476476
7.964                0.989663857     -21.4835721
7.966                0.989680567     -21.5194924
7.968                0.989697163     -21.5554084
7.97                 0.989664898     -21.5920714
7.972                0.989632471     -21.6287272
7.974                0.989599881     -21.6653759
7.976                0.989567127     -21.7020174
7.978                0.989496417     -21.7370592
7.98                 0.989425542     -21.7720973
7.982                0.989354502     -21.8071317
7.984                0.989283296     -21.8421623
7.986                0.989212382     -21.8745496
7.988                0.989141294     -21.9069342
7.99                 0.989070031     -21.9393164
7.992                0.988998594     -21.9716962
7.994                0.988965796     -22.0024705
7.996                0.988933035     -22.0332373
7.998                0.988900308     -22.0639969
8                    0.988867615     -22.0947491
8.002                0.988884082     -22.1262909
8.004                0.988900876     -22.1578242
8.006                0.988917996     -22.1893489
8.008                0.988935441     -22.2208651
8.01                 0.988977694     -22.2552093
8.012                0.989020181     -22.2895507
8.014                0.989062897     -22.3238889
8.016                0.989105839     -22.3582241
8.018                0.989131791     -22.3956409
8.02                 0.989157629     -22.4330541
8.022                0.989183352     -22.4704637
8.024                 0.98920896     -22.5078696
8.026                0.989187007     -22.5466747
8.028                 0.98916482     -22.5854717
8.03                 0.989142402     -22.6242604
8.032                0.989119744     -22.6630407
8.034                0.989051764     -22.7007113
8.036                0.988983596     -22.7383759
8.038                 0.98891524     -22.7760345
8.04                 0.988846697      -22.813687
8.042                 0.98876755      -22.848692
8.044                0.988688221     -22.8836942
8.046                0.988608711     -22.9186937
8.048                0.988529021     -22.9536904
8.05                 0.988481403     -22.9866085
8.052                0.988433779     -23.0195185
8.054                0.988386142      -23.052421
8.056                0.988338498     -23.0853158
8.058                0.988342447     -23.1184139
8.06                 0.988346749     -23.1514998
8.062                0.988351405     -23.1845734
8.064                0.988356413     -23.2176346
8.066                0.988395642     -23.2532765
8.068                0.988435231     -23.2889119
8.07                 0.988475178     -23.3245404
8.072                0.988515482     -23.3601629
8.074                0.988548612     -23.3991482
8.076                0.988581656     -23.4381302
8.078                0.988614612     -23.4771089
8.08                 0.988647479     -23.5160843
8.082                0.988636244     -23.5570899
8.084                0.988624669      -23.598087
8.086                0.988612755     -23.6390755
8.088                0.988600502     -23.6800552
8.09                 0.988537265     -23.7205176
8.092                0.988473754     -23.7609712
8.094                0.988409977      -23.801416
8.096                0.988345931     -23.8418517
8.098                0.988260194     -23.8797668
8.1                  0.988174264     -23.9176779
8.102                 0.98808814     -23.9555851
8.104                0.988001824     -23.9934883
8.106                0.987939157     -24.0288989
8.108                0.987876445     -24.0643015
8.11                 0.987813687     -24.0996963
8.112                0.987750884     -24.1350832
8.114                0.987739976     -24.1700567
8.116                0.987729468     -24.2050135
8.118                0.987719346     -24.2399536
8.12                  0.98770961     -24.2748769
8.122                0.987742645     -24.3120131
8.124                0.987776227     -24.3491365
8.126                0.987810357     -24.3862468
8.128                0.987845034      -24.423344
8.13                 0.987883303     -24.4639838
8.132                0.987921574       -24.50462
8.134                0.987959845     -24.5452521
8.136                0.987998109     -24.5858805
8.138                0.987997964      -24.629152
8.14                 0.987997323     -24.6724158
8.142                0.987996185     -24.7156718
8.144                0.987994547     -24.7589197
8.146                 0.98793842      -24.802307
8.148                0.987881837     -24.8456832
8.15                 0.987824799     -24.8890481
8.152                0.987767307     -24.9324016
8.154                0.987677545      -24.973507
8.156                0.987587523     -25.0146058
8.158                0.987497247     -25.0556986
8.16                  0.98740672     -25.0967852
8.162                0.987329939     -25.1350685
8.164                0.987253106     -25.1733436
8.166                0.987176223     -25.2116106
8.168                 0.98709929     -25.2498695
8.17                 0.987072374     -25.2870917
8.172                0.987045936     -25.3242919
8.174                0.987019967     -25.3614701
8.176                0.986994473     -25.3986263
8.178                0.987018911      -25.437549
8.18                 0.987044227     -25.4764484
8.182                0.987070418     -25.5153238
8.184                0.987097482     -25.5541748
8.186                 0.98713913     -25.5966521
8.188                0.987181008     -25.6391214
8.19                 0.987223115     -25.6815827
8.192                0.987265451      -25.724036
8.194                0.987276839     -25.7697292
8.196                  0.9872875     -25.8154185
8.198                0.987297435     -25.8611028
8.2                  0.987306637     -25.9067818