! TOUCHSTONE file generated by CST DESIGN STUDIO
! Date and time: Mon Feb 10 16:48:59 2025
! Project name: C:\Work\MatlabApps\UnitCellType2OptimizationMatlab\CST\unitcell.cst
! Tree item: Tasks\Sweep1\SPara1\S-Parameters
! Header version: 2024
! Port assignment regex: !\s*Touchstone port\s*([0-9]+)\s*=\s*(CST MWS port|CST DES external port|CST DES block port)\s*(.+)\s* \(\"(.*)\"\)(\s*mode\s*([0-9]+))?.*
! Touchstone port assignment:
! Touchstone port 1 = CST DES external port 1 ("")
# GHz S MA R 50
7                    0.994320128     -12.3886857
7.002                0.994272907      -12.403466
7.004                0.994225575      -12.418245
7.006                0.994178133     -12.4330228
7.008                0.994130584     -12.4477993
7.01                 0.994137972     -12.4618275
7.012                0.994145411     -12.4758561
7.014                0.994152901     -12.4898853
7.016                0.994160446     -12.5039151
7.018                0.994213764     -12.5198866
7.02                 0.994267251      -12.535859
7.022                0.994320907     -12.5518324
7.024                0.994374732     -12.5678067
7.026                0.994433253     -12.5870792
7.028                0.994491971     -12.6063523
7.03                 0.994550887     -12.6256255
7.032                    0.99461     -12.6448989
7.034                0.994629727     -12.6665746
7.036                0.994649532       -12.68825
7.038                0.994669415     -12.7099251
7.04                 0.994689376     -12.7315998
7.042                0.994653326     -12.7531597
7.044                 0.99461715     -12.7747187
7.046                0.994580848     -12.7962768
7.048                0.994544418     -12.8178339
7.05                 0.994474806     -12.8368783
7.052                0.994404968      -12.855921
7.054                0.994334903      -12.874962
7.056                0.994264611     -12.8940013
7.058                0.994207664     -12.9099704
7.06                 0.994150573     -12.9259378
7.062                0.994093337     -12.9419038
7.064                0.994035956     -12.9578685
7.066                0.994028804     -12.9724575
7.068                0.994021667     -12.9870466
7.07                 0.994014543      -13.001636
7.072                 0.99400743     -13.0162257
7.074                0.994051457     -13.0321537
7.076                0.994095628     -13.0480829
7.078                0.994139941      -13.064013
7.08                 0.994184398     -13.0799443
7.082                0.994244995     -13.0990169
7.084                 0.99430579       -13.11809
7.086                0.994366784     -13.1371635
7.088                0.994427973     -13.1562378
7.09                  0.99445925     -13.1781121
7.092                0.994490644     -13.1999862
7.094                0.994522155     -13.2218603
7.096                0.994553784     -13.2437342
7.098                0.994530276      -13.266178
7.1                  0.994506686     -13.2886214
7.102                0.994483019      -13.311064
7.104                0.994459277      -13.333506
7.106                0.994393819     -13.3539285
7.108                0.994328146     -13.3743494
7.11                 0.994262259     -13.3947689
7.112                0.994196161     -13.4151869
7.114                0.994131469     -13.4324791
7.116                0.994066604     -13.4497699
7.118                0.994001565     -13.4670592
7.12                 0.993936354      -13.484347
7.122                0.993914625     -13.4996969
7.124                0.993892868     -13.5150467
7.126                0.993871082     -13.5303966
7.128                0.993849273     -13.5457466
7.13                 0.993881795     -13.5617818
7.132                0.993914429      -13.577818
7.134                0.993947174     -13.5938553
7.136                0.993980031     -13.6098937
7.138                0.994039728     -13.6287878
7.14                 0.994099618     -13.6476828
7.142                0.994159699     -13.6665786
7.144                0.994219971     -13.6854751
7.146                0.994261015     -13.7074534
7.148                0.994302207     -13.7294319
7.15                 0.994343546     -13.7514104
7.152                0.994385032      -13.773389
7.154                0.994374638      -13.796591
7.156                0.994364217     -13.8197924
7.158                0.994353771     -13.8429935
7.16                 0.994343295      -13.866194
7.162                0.994284557     -13.8879522
7.164                 0.99422563     -13.9097093
7.166                0.994166514     -13.9314651
7.168                 0.99410721     -13.9532198
7.17                 0.994037475     -13.9719395
7.172                0.993967546     -13.9906575
7.174                0.993897423      -14.009374
7.176                0.993827106     -14.0280892
7.178                0.993791691     -14.0444038
7.18                 0.993756211      -14.060718
7.182                0.993720664      -14.077032
7.184                0.993685049     -14.0933457
7.186                0.993704588     -14.1096672
7.188                0.993724205     -14.1259897
7.19                 0.993743901     -14.1423132
7.192                0.993763676     -14.1586379
7.194                0.993819748     -14.1774217
7.196                0.993875998     -14.1962064
7.198                0.993932425     -14.2149921
7.2                  0.993989029      -14.233779
7.202                 0.99403783      -14.255796
7.204                0.994086801     -14.2778132
7.206                 0.99413594     -14.2998307
7.208                0.994185249     -14.3218485
7.21                 0.994188175     -14.3456907
7.212                0.994191119     -14.3695327
7.214                0.994194086     -14.3933745
7.216                0.994197075     -14.4172161
7.218                0.994147446     -14.4402585
7.22                  0.99409766     -14.4632999
7.222                0.994047717     -14.4863403
7.224                0.993997618     -14.5093797
7.226                0.993925872     -14.5296139
7.228                0.993853923     -14.5498466
7.23                 0.993781769      -14.570078
7.232                0.993709412     -14.5903078
7.234                0.993661908     -14.6077924
7.236                0.993614301     -14.6252766
7.238                0.993566589     -14.6427604
7.24                  0.99351878     -14.6602436
7.242                0.993524449     -14.6770732
7.244                 0.99353016     -14.6939036
7.246                0.993535915      -14.710735
7.248                0.993541712     -14.7275672
7.25                 0.993591557     -14.7463618
7.252                0.993641564     -14.7651577
7.254                0.993691729     -14.7839546
7.256                0.993742053     -14.8027526
7.258                0.993796147     -14.8248005
7.26                 0.993850424      -14.846849
7.262                0.993904883     -14.8688979
7.264                0.993959524     -14.8909475
7.266                0.993975082     -14.9153447
7.268                0.993990708     -14.9397419
7.27                 0.994006399      -14.964139
7.272                0.994022153      -14.988536
7.274                0.993983197     -15.0128011
7.276                0.993944123     -15.0370655
7.278                0.993904932      -15.061329
7.28                 0.993865623     -15.0855918
7.282                0.993794454     -15.1074018
7.284                0.993723076     -15.1292102
7.286                0.993651492     -15.1510173
7.288                0.993579703     -15.1728231
7.29                 0.993521717     -15.1916614
7.292                0.993463596      -15.210499
7.294                0.993405337     -15.2293359
7.296                0.993346943     -15.2481722
7.298                  0.9933381     -15.2657296
7.3                  0.993329263     -15.2832877
7.302                0.993320432     -15.3008466
7.304                0.993311609     -15.3184063
7.306                0.993352726     -15.3373533
7.308                0.993393978     -15.3563016
7.31                 0.993435365      -15.375251
7.312                0.993476887      -15.394202
7.314                0.993533576     -15.4162901
7.316                0.993590452      -15.438379
7.318                0.993647516     -15.4604685
7.32                 0.993704767     -15.4825588
7.322                0.993731879      -15.507427
7.324                0.993759094     -15.5322955
7.326                0.993786414      -15.557164
7.328                 0.99381384     -15.5820327
7.33                 0.993786729     -15.6074505
7.332                0.993759542     -15.6328677
7.334                 0.99373228     -15.6582843
7.336                0.993704943     -15.6837002
7.338                0.993636854     -15.7071213
7.34                 0.993568569     -15.7305412
7.342                0.993500086     -15.7539599
7.344                0.993431406     -15.7773771
7.346                0.993364818     -15.7977366
7.348                0.993298065     -15.8180952
7.35                 0.993231148      -15.838453
7.352                0.993164067     -15.8588099
7.354                0.993140391     -15.8773154
7.356                0.993116688     -15.8958213
7.358                0.993092952     -15.9143276
7.36                 0.993069183     -15.9328345
7.362                 0.99309913     -15.9520917
7.364                0.993129186     -15.9713501
7.366                0.993159347     -15.9906098
7.368                0.993189613     -16.0098708
7.37                 0.993245958     -16.0320222
7.372                0.993302487     -16.0541746
7.374                0.993359199     -16.0763279
7.376                0.993416095     -16.0984822
7.378                0.993453249     -16.1237273
7.38                 0.993490539     -16.1489727
7.382                0.993527967     -16.1742183
7.384                0.993565527     -16.1994643
7.386                0.993551228     -16.2259252
7.388                0.993536899     -16.2523857
7.39                  0.99352254     -16.2788458
7.392                0.993508153     -16.3053055
7.394                0.993446073     -16.3303292
7.396                0.993383809     -16.3553516
7.398                0.993321367     -16.3803729
7.4                  0.993258747     -16.4053931
7.402                0.993186454     -16.4274185
7.404                0.993113976     -16.4494428
7.406                0.993041313      -16.471466
7.408                0.992968466     -16.4934883
7.41                 0.992930974     -16.5131798
7.412                0.992893412     -16.5328715
7.414                 0.99285578     -16.5525636
7.416                0.992818081     -16.5722559
7.418                0.992835471     -16.5920415
7.42                 0.992852933     -16.6118284
7.422                0.992870469     -16.6316164
7.424                0.992888082      -16.651406
7.426                0.992941466     -16.6737251
7.428                0.992995024     -16.6960453
7.43                 0.993048755     -16.7183665
7.432                0.993102661     -16.7406888
7.434                0.993147907     -16.7662975
7.436                0.993193314     -16.7919069
7.438                0.993238883     -16.8175167
7.44                 0.993284613      -16.843127
7.442                0.993283204     -16.8705746
7.444                 0.99328181      -16.898022
7.446                 0.99328043     -16.9254691
7.448                0.993279065     -16.9529159
7.45                 0.993224858     -16.9795527
7.452                0.993170498     -17.0061883
7.454                0.993115985     -17.0328229
7.456                0.993061317     -17.0594562
7.458                0.992985486     -17.0832748
7.46                 0.992909457     -17.1070922
7.462                0.992833229     -17.1309085
7.464                0.992756803     -17.1547236
7.466                0.992706073     -17.1758255
7.468                0.992655239      -17.196927
7.47                 0.992604299     -17.2180285
7.472                0.992553252       -17.23913
7.474                0.992556449     -17.2596511
7.476                0.992559687     -17.2801733
7.478                0.992562963     -17.3006966
7.48                 0.992566276     -17.3212211
7.482                0.992613829     -17.3438061
7.484                0.992661538     -17.3663923
7.486                0.992709405     -17.3889796
7.488                0.992757429     -17.4115683
7.49                 0.992808603     -17.4375106
7.492                0.992859956     -17.4634535
7.494                0.992911488     -17.4893969
7.496                0.992963195     -17.5153411
7.498                0.992974654     -17.5436869
7.5                  0.992986173     -17.5720325
7.502                0.992997752     -17.6003779
7.504                 0.99300939     -17.6287232
7.506                0.992965313     -17.6569449
7.508                0.992921111     -17.6851656
7.51                  0.99287679     -17.7133853
7.512                 0.99283235     -17.7416041
7.514                0.992755902       -17.76734
7.516                0.992679249     -17.7930745
7.518                0.992602393     -17.8188078
7.52                 0.992525334     -17.8445397
7.522                0.992462903     -17.8672944
7.524                0.992400333     -17.8900488
7.526                0.992337623     -17.9128029
7.528                0.992274776     -17.9355566
7.53                 0.992262728     -17.9570755
7.532                0.992250679     -17.9785954
7.534                0.992238631     -18.0001164
7.536                0.992226587     -18.0216385
7.538                0.992265366     -18.0446529
7.54                 0.992304279     -18.0676687
7.542                0.992343326     -18.0906857
7.544                0.992382506     -18.1137039
7.546                0.992436658     -18.1399991
7.548                0.992490998     -18.1662952
7.55                 0.992545525     -18.1925921
7.552                 0.99260024     -18.2188897
7.554                0.992623519     -18.2480626
7.556                0.992646897     -18.2772357
7.558                0.992670374     -18.3064087
7.56                 0.992693949     -18.3355817
7.562                0.992661395     -18.3653327
7.564                0.992628761     -18.3950828
7.566                0.992596047     -18.4248321
7.568                 0.99256325     -18.4545802
7.57                 0.992488999     -18.4822935
7.572                 0.99241455     -18.5100053
7.574                0.992339902     -18.5377158
7.576                0.992265056     -18.5654249
7.578                0.992193002      -18.590037
7.58                  0.99212078     -18.6146481
7.582                0.992048389     -18.6392586
7.584                0.991975829     -18.6638685
7.586                0.991948453     -18.6866462
7.588                0.991921041     -18.7094247
7.59                  0.99189359      -18.732204
7.592                0.991866099     -18.7549841
7.594                0.991893951     -18.7786288
7.596                0.991921909     -18.8022748
7.598                0.991949972     -18.8259222
7.6                  0.991978141      -18.849571
7.602                0.992032689      -18.876292
7.604                0.992087425     -18.9030139
7.606                0.992142348     -18.9297366
7.608                0.992197458     -18.9564604
7.61                 0.992231325     -18.9864369
7.612                0.992265327     -19.0164134
7.614                0.992299464     -19.0463901
7.616                0.992333736      -19.076367
7.618                0.992313697     -19.1076275
7.62                 0.992293615     -19.1388874
7.622                0.992273497     -19.1701465
7.624                0.992253341     -19.2014048
7.626                 0.99218369     -19.2311837
7.628                0.992113852     -19.2609611
7.63                 0.992043828     -19.2907369
7.632                0.991973618     -19.3205112
7.634                0.991893792     -19.3471959
7.636                0.991813773     -19.3738797
7.638                 0.99173356     -19.4005624
7.64                 0.991653157      -19.427244
7.642                0.991610081      -19.451557
7.644                0.991566925     -19.4758704
7.646                0.991523689     -19.5001844
7.648                0.991480381     -19.5244989
7.65                 0.991494731     -19.5489877
7.652                0.991509152     -19.5734779
7.654                0.991523645     -19.5979694
7.656                0.991538209     -19.6224621
7.658                0.991589903     -19.6496865
7.66                 0.991641779     -19.6769121
7.662                0.991693836     -19.7041386
7.664                0.991746072      -19.731366
7.666                0.991788717     -19.7620989
7.668                0.991831525      -19.792832
7.67                 0.991874497     -19.8235654
7.672                0.991917631     -19.8542991
7.674                0.991910896     -19.8870011
7.676                0.991904169     -19.9197024
7.678                0.991897451      -19.952403
7.68                 0.991890737     -19.9851029
7.682                0.991828504     -20.0169775
7.684                0.991766108     -20.0488505
7.686                0.991703549     -20.0807218
7.688                0.991640826     -20.1125916
7.69                 0.991556175     -20.1415434
7.692                0.991471312     -20.1704935
7.694                0.991386238     -20.1994422
7.696                0.991300955     -20.2283895
7.698                0.991243167     -20.2545383
7.7                  0.991185261     -20.2806871
7.702                0.991127236     -20.3068361
7.704                0.991069094     -20.3329851
7.706                0.991068301     -20.3586036
7.708                0.991067541     -20.3842233
7.71                 0.991066815     -20.4098443
7.712                0.991066125     -20.4354665
7.714                0.991111927     -20.4633559
7.716                0.991157893     -20.4912463
7.718                0.991204024     -20.5191378
7.72                 0.991250319     -20.5470306
7.722                0.991299385     -20.5785458
7.724                0.991348636     -20.6100613
7.726                0.991398073     -20.6415771
7.728                0.991447695     -20.6730933
7.73                 0.991454113     -20.7072111
7.732                0.991460582     -20.7413286
7.734                0.991467106     -20.7754454
7.736                0.991473683     -20.8095616
7.738                0.991420935     -20.8435732
7.74                 0.991368052     -20.8775831
7.742                0.991315035     -20.9115913
7.744                0.991261885     -20.9455978
7.746                   0.991175     -20.9769978
7.748                0.991087895     -21.0083959
7.75                 0.991000571     -21.0397923
7.752                0.990913029     -21.0711867
7.754                0.990841511     -21.0994658
7.756                0.990769837     -21.1277445
7.758                0.990698007     -21.1560228
7.76                 0.990626021     -21.1843007
7.762                0.990608568     -21.2113476
7.764                0.990591114     -21.2383953
7.766                0.990573651      -21.265444
7.768                 0.99055618     -21.2924938
7.77                 0.990592927     -21.3212386
7.772                0.990629818     -21.3499846
7.774                 0.99066685     -21.3787317
7.776                0.990704023     -21.4074797
7.778                0.990756754     -21.4398265
7.78                 0.990809683     -21.4721737
7.782                0.990862811     -21.5045212
7.784                0.990916136     -21.5368692
7.786                0.990935133     -21.5723706
7.788                0.990954228     -21.6078714
7.79                  0.99097342     -21.6433716
7.792                0.990992706     -21.6788714
7.794                0.990951322     -21.7150356
7.796                0.990909843     -21.7511981
7.798                0.990868269     -21.7873589
7.8                  0.990826598     -21.8235179
7.802                0.990740402      -21.857528
7.804                0.990653982     -21.8915357
7.806                0.990567341     -21.9255411
7.808                 0.99048048     -21.9595444
7.81                 0.990396992     -21.9902609
7.812                0.990313314     -22.0209763
7.814                0.990229446     -22.0516908
7.816                0.990145388     -22.0824042
7.818                0.990110437     -22.1112156
7.82                 0.990075434     -22.1400276
7.822                0.990040379     -22.1688404
7.824                0.990005276     -22.1976538
7.826                0.990030086     -22.2275022
7.828                0.990055007     -22.2573515
7.83                 0.990080039     -22.2872018
7.832                0.990105184     -22.3170535
7.834                0.990158578     -22.3503309
7.836                0.990212176     -22.3836086
7.838                0.990265977     -22.4168867
7.84                 0.990319981     -22.4501651
7.842                0.990350418     -22.4870609
7.844                0.990380992     -22.5239565
7.846                0.990411705     -22.5608515
7.848                0.990442558      -22.597746
7.85                 0.990413921      -22.636098
7.852                0.990385229     -22.6744483
7.854                0.990356486     -22.7127967
7.856                0.990327688     -22.7511433
7.858                0.990244856     -22.7879278
7.86                 0.990161812     -22.8247097
7.862                0.990078555     -22.8614889
7.864                0.989995086     -22.8982652
7.866                0.989901398     -22.9317258
7.868                 0.98980749     -22.9651847
7.87                 0.989713361     -22.9986418
7.872                0.989619012     -23.0320973
7.874                0.989565726     -23.0630393
7.876                0.989512347     -23.0939812
7.878                0.989458868     -23.1249233
7.88                 0.989405292     -23.1558656
7.882                0.989414979      -23.187092
7.884                0.989424742     -23.2183191
7.886                0.989434577     -23.2495472
7.888                0.989444485      -23.280776
7.89                 0.989494977     -23.3151074
7.892                0.989545668     -23.3494391
7.894                0.989596557      -23.383771
7.896                0.989647644     -23.4181033
7.898                0.989687844     -23.4563888
7.9                  0.989728221     -23.4946738
7.902                0.989768772     -23.5329582
7.904                0.989809494     -23.5712422
7.906                0.989794898      -23.611773
7.908                0.989780299     -23.6523019
7.91                 0.989765696      -23.692829
7.912                0.989751089     -23.7333541
7.914                0.989675135     -23.7730386
7.916                0.989598983     -23.8127198
7.918                0.989522637      -23.852398
7.92                 0.989446099     -23.8920731
7.922                0.989345448     -23.9285912
7.924                0.989244554     -23.9651066
7.926                0.989143416     -24.0016195
7.928                0.989042035     -24.0381297
7.93                 0.988971249     -24.0716268
7.932                0.988900318     -24.1051233
7.934                0.988829244     -24.1386194
7.936                 0.98875803     -24.1721149
7.938                0.988750455     -24.2051221
7.94                 0.988742909     -24.2381298
7.942                0.988735393     -24.2711381
7.944                0.988727911     -24.3041473
7.946                0.988771824     -24.3397855
7.948                 0.98881592     -24.3754238
7.95                 0.988860199     -24.4110621
7.952                0.988904661     -24.4467005
7.954                0.988951765     -24.4864811
7.956                0.988999073     -24.5262613
7.958                0.989046584     -24.5660407
7.96                 0.989094299     -24.6058193
7.962                0.989093406     -24.6485916
7.964                0.989092559      -24.691362
7.966                0.989091757     -24.7341303
7.968                   0.989091     -24.7768968
7.97                 0.989023685     -24.8196212
7.972                0.988956203     -24.8623421
7.974                0.988888554     -24.9050595
7.976                0.988820735     -24.9477732
7.978                0.988715258     -24.9876349
7.98                 0.988609521     -25.0274932
7.982                0.988503522      -25.067348
7.984                0.988397263     -25.1071992
7.986                0.988309201     -25.1436441
7.988                0.988220952     -25.1800871
7.99                 0.988132512     -25.2165287
7.992                0.988043883     -25.2529688
7.994                0.988016681     -25.2881247
7.996                0.987989461     -25.3232806
7.998                0.987962222     -25.3584366
8                    0.987934963     -25.3935926
8.002                0.987968728     -25.4307764
8.004                0.988002652     -25.4679599
8.006                0.988036735     -25.5051431
8.008                0.988070975     -25.5423258
8.01                 0.988122524     -25.5836982
8.012                  0.9881743     -25.6250702
8.014                0.988226302     -25.6664411
8.016                0.988278524     -25.7078112
8.018                0.988291583     -25.7528595
8.02                  0.98830474     -25.7979057
8.022                0.988317997     -25.8429497
8.024                0.988331351     -25.8879916
8.026                0.988275725     -25.9338956
8.028                0.988219962     -25.9797959
8.03                  0.98816407     -26.0256922
8.032                0.988108037     -26.0715841
8.034                0.988001358     -26.1151233
8.036                0.987894409      -26.158658
8.038                0.987787191     -26.2021882
8.04                 0.987679704     -26.2457138
8.042                0.987576048     -26.2855973
8.044                0.987472158     -26.3254782
8.046                0.987368036     -26.3653564
8.048                0.987263679     -26.4052318
8.05                 0.987215176     -26.4430553
8.052                0.987166609     -26.4808777
8.054                0.987117969     -26.5186995
8.056                0.987069263     -26.5565206
8.058                0.987088769     -26.5956366
8.06                 0.987108398     -26.6347516
8.062                0.987128151     -26.6738657
8.064                0.987148026     -26.7129788
8.066                 0.98719994     -26.7561465
8.068                0.987252092     -26.7993126
8.07                  0.98730448     -26.8424769
8.072                0.987357096     -26.8856403
8.074                0.987382419     -26.9330717
8.076                 0.98740789     -26.9805006
8.078                 0.98743351     -27.0279271
8.08                 0.987459275     -27.0753511
8.082                0.987416581     -27.1245628
8.084                0.987373801     -27.1737702
8.086                0.987330934     -27.2229735
8.088                0.987287979     -27.2721726
8.09                 0.987182862     -27.3196899
8.092                0.987077464     -27.3672015
8.094                0.986971795     -27.4147075
8.096                0.986865853     -27.4622075
8.098                0.986748148     -27.5060002
8.1                  0.986630168     -27.5497888
8.102                0.986511912     -27.5935731
8.104                0.986393382     -27.6373532
8.106                0.986322191     -27.6783549
8.108                 0.98625087     -27.7193546
8.11                 0.986179419     -27.7603525
8.112                0.986107838     -27.8013485
8.114                0.986109085     -27.8428187
8.116                0.986110428     -27.8842872
8.118                0.986111849     -27.9257538
8.12                 0.986113351     -27.9672187
8.122                0.986161378     -28.0124197
8.124                 0.98620964     -28.0576176
8.126                0.986258137     -28.1028125
8.128                0.986306868     -28.1480043
8.13                 0.986342428     -28.1979335
8.132                0.986378182       -28.24786
8.134                 0.98641413     -28.2977833
8.136                0.986450263     -28.3477039
8.138                0.986421704     -28.4003625
8.14                 0.986393107     -28.4530167
8.142                0.986364472     -28.5056664
8.144                0.986335798     -28.5583118
8.146                0.986235511     -28.6100809
8.148                0.986134957     -28.6618437
8.15                 0.986034138        -28.7136
8.152                0.985933055     -28.7653499
8.154                0.985804033     -28.8135283
8.156                0.985674693        -28.8617
8.158                0.985545039     -28.9098658
8.16                 0.985415076     -28.9580253
8.162                0.985321233     -29.0027818
8.164                0.985227202     -29.0475347
8.166                0.985132985     -29.0922841
8.168                 0.98503858     -29.1370299
8.17                   0.9850189     -29.1813694
8.172                0.984999259     -29.2257054
8.174                0.984979646      -29.270038
8.176                0.984960072     -29.3143678
8.178                0.985000704     -29.3619698
8.18                 0.985041565     -29.4095666
8.182                0.985082654     -29.4571582
8.184                 0.98512397     -29.5047446
8.186                0.985167959     -29.5574066
8.188                0.985212189     -29.6100639
8.19                 0.985256661     -29.6627165
8.192                0.985301374     -29.7153643
8.194                0.985288068     -29.7717218
8.196                0.985274767     -29.8280756
8.198                0.985261483     -29.8844248
8.2                  0.985248206     -29.9407696