! TOUCHSTONE file generated by CST DESIGN STUDIO
! Date and time: Mon Feb 10 16:49:08 2025
! Project name: C:\Work\MatlabApps\UnitCellType2OptimizationMatlab\CST\unitcell.cst
! Tree item: Tasks\Sweep1\SPara1\S-Parameters
! Header version: 2024
! Port assignment regex: !\s*Touchstone port\s*([0-9]+)\s*=\s*(CST MWS port|CST DES external port|CST DES block port)\s*(.+)\s* \(\"(.*)\"\)(\s*mode\s*([0-9]+))?.*
! Touchstone port assignment:
! Touchstone port 1 = CST DES external port 1 ("")
# GHz S MA R 50
7                    0.988123519      -7.6211834
7.002                0.988117952     -7.64463057
7.004                0.988111069     -7.66803269
7.006                0.988102882     -7.69139022
7.008                0.988093406     -7.71470351
7.01                 0.988086004      -7.7363182
7.012                0.988078255      -7.7578738
7.014                0.988070162     -7.77937095
7.016                0.988061731     -7.80081017
7.018                0.988076805      -7.8212116
7.02                 0.988092102     -7.84157989
7.022                0.988107621     -7.86191531
7.024                0.988123362     -7.88221812
7.026                0.988167994     -7.90291059
7.028                0.988212562     -7.92358166
7.03                 0.988257068     -7.94423144
7.032                0.988301512     -7.96486009
7.034                0.988359305     -7.98707941
7.036                0.988417272     -8.00925901
7.038                0.988475417     -8.03139922
7.04                 0.988533739     -8.05350044
7.042                0.988578946     -8.07729091
7.044                0.988624622     -8.10104504
7.046                0.988670766      -8.1247634
7.048                0.988717374     -8.14844658
7.05                 0.988734009     -8.17268966
7.052                0.988750286     -8.19691459
7.054                0.988766205     -8.22112148
7.056                0.988781768     -8.24531044
7.058                0.988773163     -8.26854933
7.06                 0.988763439     -8.29175702
7.062                0.988752608     -8.31493387
7.064                0.988740679     -8.33808011
7.066                0.988727367     -8.35952237
7.068                0.988713544     -8.38091482
7.07                 0.988699217     -8.40225813
7.072                0.988684389     -8.42355283
7.074                0.988691161     -8.44366353
7.076                0.988698142     -8.46374105
7.078                0.988705331     -8.48378568
7.08                 0.988712728     -8.50379765
7.082                0.988749741     -8.52400894
7.084                0.988786783     -8.54420507
7.086                0.988823855     -8.56438615
7.088                 0.98886096     -8.58455244
7.09                 0.988914749      -8.6062057
7.092                0.988968566     -8.62783123
7.094                0.989022414     -8.64942923
7.096                0.989076296     -8.67099991
7.098                0.989120843     -8.69433832
7.1                  0.989165779     -8.71764381
7.102                0.989211103     -8.74091666
7.104                0.989256816     -8.76415732
7.106                0.989273496     -8.78817857
7.108                 0.98929011      -8.8121825
7.11                  0.98930666     -8.83616925
7.112                0.989323144     -8.86013901
7.114                0.989312693     -8.88335105
7.116                0.989301367     -8.90654208
7.118                0.989289172     -8.92971219
7.12                 0.989276113     -8.95286139
7.122                0.989257653      -8.9743239
7.124                0.989238569     -8.99574629
7.126                0.989218868       -9.017129
7.128                0.989198557     -9.03847233
7.13                  0.98919734     -9.05847493
7.132                0.989196254      -9.0784446
7.134                  0.9891953      -9.0983816
7.136                0.989194476     -9.11828619
7.138                0.989223701     -9.13817251
7.14                 0.989253055      -9.1580461
7.142                0.989282536     -9.17790706
7.144                0.989312144     -9.19775546
7.146                 0.98936179     -9.21895928
7.148                0.989411401     -9.24014515
7.15                 0.989460977     -9.26131313
7.152                 0.98951052     -9.28246335
7.154                 0.98955501     -9.30543585
7.156                0.989599767      -9.3283799
7.158                0.989644792     -9.35129585
7.16                 0.989690085     -9.37418408
7.162                0.989708133     -9.39807892
7.164                0.989726296     -9.42195615
7.166                0.989744575     -9.44581602
7.168                0.989762967     -9.46965876
7.17                 0.989752094     -9.49297488
7.172                0.989740595     -9.51627657
7.174                0.989728476     -9.53956393
7.176                 0.98971574     -9.56283699
7.178                0.989693221     -9.58448183
7.18                 0.989670028     -9.60609568
7.182                0.989646167     -9.62767897
7.184                0.989621643     -9.64923201
7.186                0.989613083     -9.66929353
7.188                0.989604539     -9.68932332
7.19                  0.98959601     -9.70932165
7.192                0.989587498     -9.72928878
7.194                0.989608984     -9.74900265
7.196                0.989630668     -9.76870372
7.198                 0.98965255     -9.78839206
7.2                  0.989674632     -9.80806787
7.202                0.989719954     -9.82893242
7.204                0.989765242      -9.8497861
7.206                0.989810496     -9.87062895
7.208                0.989855718     -9.89146103
7.21                  0.98990052     -9.91414602
7.212                0.989945466     -9.93680832
7.214                0.989990557     -9.95944796
7.216                0.990035794     -9.98206513
7.218                0.990056355      -10.005915
7.22                 0.990077114      -10.029747
7.222                0.990098072     -10.0535614
7.224                0.990119227     -10.0773583
7.226                0.990109406     -10.1008937
7.228                0.990099199     -10.1244186
7.23                 0.990088607      -10.147933
7.232                0.990077629     -10.1714367
7.234                0.990052272     -10.1934147
7.236                0.990026256     -10.2153701
7.238                0.989999586     -10.2373031
7.24                 0.989972268     -10.2592139
7.242                 0.98995702     -10.2795067
7.244                0.989941658     -10.2997702
7.246                0.989926182     -10.3200048
7.248                0.989910594     -10.3402106
7.25                 0.989924294     -10.3599122
7.252                0.989938227     -10.3795997
7.254                0.989952389      -10.399273
7.256                0.989966779     -10.4189323
7.258                0.990007267     -10.4395841
7.26                  0.99004777     -10.4602295
7.262                0.990088286     -10.4808686
7.264                0.990128816     -10.5015015
7.266                0.990173672     -10.5239825
7.268                0.990218572     -10.5464466
7.27                 0.990263516     -10.5688937
7.272                0.990308504     -10.5913243
7.274                0.990332113     -10.6151945
7.276                0.990355928     -10.6390471
7.278                0.990379949     -10.6628821
7.28                 0.990404176        -10.6867
7.282                0.990396444     -10.7105429
7.284                 0.99038852     -10.7343769
7.286                0.990380408      -10.758202
7.288                0.990372109     -10.7820183
7.29                 0.990344914     -10.8044559
7.292                0.990317127     -10.8268778
7.294                0.990288753     -10.8492842
7.296                0.990259794     -10.8716751
7.298                0.990238377     -10.8923521
7.3                  0.990216724     -10.9130034
7.302                0.990194837     -10.9336293
7.304                0.990172719       -10.95423
7.306                0.990178511     -10.9740684
7.308                0.990184519      -10.993891
7.31                 0.990190743     -11.0136978
7.312                0.990197184      -11.033489
7.314                0.990232169     -11.0540421
7.316                0.990267237      -11.074591
7.318                 0.99030239     -11.0951357
7.32                 0.990337626     -11.1156762
7.322                0.990382024     -11.1380217
7.324                0.990426403      -11.160356
7.326                0.990470765      -11.182679
7.328                 0.99051511     -11.2049908
7.33                 0.990542029     -11.2289311
7.332                0.990569111     -11.2528549
7.334                0.990596357     -11.2767624
7.336                0.990623766     -11.3006537
7.338                0.990619034     -11.3248692
7.34                 0.990614261     -11.3490759
7.342                0.990609447      -11.373274
7.344                0.990604591     -11.3974634
7.346                0.990576542      -11.420465
7.348                0.990548008     -11.4434562
7.35                 0.990518991     -11.4664371
7.352                0.990489494     -11.4894079
7.354                0.990462467     -11.5106043
7.356                 0.99043511     -11.5317793
7.358                0.990407424     -11.5529333
7.36                 0.990379411     -11.5740664
7.362                0.990377135     -11.5941782
7.364                0.990375022     -11.6142729
7.366                0.990373069     -11.6343505
7.368                0.990371276     -11.6544112
7.37                 0.990400046     -11.6749693
7.372                0.990428972     -11.6955234
7.374                0.990458054     -11.7160734
7.376                0.990487293     -11.7366196
7.378                0.990530628     -11.7588817
7.38                 0.990573926     -11.7811373
7.382                0.990617187     -11.8033864
7.384                0.990660412      -11.825629
7.386                0.990690843     -11.8496603
7.388                0.990721367     -11.8736771
7.39                 0.990751987     -11.8976795
7.392                0.990782704     -11.9216677
7.394                0.990782185      -11.946293
7.396                0.990781716     -11.9709091
7.398                0.990781299      -11.995516
7.4                  0.990780934     -12.0201138
7.402                0.990753543     -12.0437713
7.404                0.990725794     -12.0674221
7.406                0.990697688     -12.0910661
7.408                0.990669228     -12.1147034
7.41                 0.990637794     -12.1365597
7.412                0.990605975     -12.1583995
7.414                0.990573771     -12.1802229
7.416                0.990541187     -12.2020302
7.418                0.990531218     -12.2225781
7.42                 0.990521327     -12.2431085
7.422                0.990511514     -12.2636214
7.424                0.990501781      -12.284117
7.426                0.990523818     -12.3048229
7.428                0.990546068     -12.3255235
7.43                 0.990568531      -12.346219
7.432                0.990591207     -12.3669093
7.434                0.990632598     -12.3891839
7.436                0.990673976     -12.4114556
7.438                0.990715339     -12.4337243
7.44                  0.99075669       -12.45599
7.442                0.990790265     -12.4801664
7.444                0.990823862     -12.5043313
7.446                0.990857482     -12.5284845
7.448                0.990891124     -12.5526261
7.45                 0.990895195     -12.5777136
7.452                0.990899356      -12.602791
7.454                0.990903606     -12.6278585
7.456                0.990907944     -12.6529161
7.458                0.990882069     -12.6773055
7.46                 0.990855964       -12.70169
7.462                0.990829631     -12.7260696
7.464                0.990803069     -12.7504445
7.466                0.990767833      -12.773081
7.468                0.990732196     -12.7957055
7.47                 0.990696162     -12.8183183
7.472                0.990659731     -12.8409194
7.474                0.990642088     -12.8620391
7.476                0.990624427     -12.8831416
7.478                0.990606746     -12.9042274
7.48                 0.990589045     -12.9252964
7.482                0.990603679     -12.9462658
7.484                0.990618557     -12.9672281
7.486                0.990633678     -12.9881833
7.488                0.990649041     -13.0091314
7.49                 0.990687615     -13.0314864
7.492                0.990726227     -13.0538405
7.494                 0.99076488     -13.0761937
7.496                0.990803572     -13.0985462
7.498                0.990840007     -13.1228922
7.5                  0.990876406     -13.1472298
7.502                 0.99091277      -13.171559
7.504                0.990949099     -13.1958798
7.506                0.990958517     -13.2214524
7.508                0.990968013     -13.2470146
7.51                 0.990977592     -13.2725664
7.512                0.990987253      -13.298108
7.514                0.990964234     -13.3233072
7.516                0.990941096      -13.348502
7.518                0.990917841     -13.3736924
7.52                 0.990894469     -13.3988786
7.522                0.990856588     -13.4224262
7.524                0.990818335      -13.445966
7.526                0.990779709      -13.469498
7.528                0.990740714     -13.4930223
7.53                  0.99071567     -13.5148779
7.532                0.990690508     -13.5367181
7.534                 0.99066523      -13.558543
7.536                0.990639837     -13.5803529
7.538                0.990646336     -13.6017341
7.54                 0.990653074      -13.623106
7.542                0.990660049     -13.6444685
7.544                0.990667261     -13.6658218
7.546                0.990701679     -13.6883507
7.548                 0.99073621     -13.7108795
7.55                 0.990770853     -13.7334079
7.552                0.990805608     -13.7559361
7.554                0.990843951     -13.7804851
7.556                0.990882227     -13.8050291
7.558                0.990920437      -13.829568
7.56                 0.990958579     -13.8541018
7.562                0.990973507     -13.8801671
7.564                0.990988473     -13.9062221
7.566                0.991003478     -13.9322669
7.568                0.991018521     -13.9583015
7.57                 0.990999528     -13.9843416
7.572                  0.9909805     -14.0103769
7.574                0.990961438     -14.0364073
7.576                0.990942342     -14.0624329
7.578                0.990903155     -14.0869894
7.58                 0.990863652     -14.1115411
7.582                0.990823835     -14.1360882
7.584                0.990783705     -14.1606306
7.586                0.990752074      -14.183369
7.588                0.990720246     -14.2060944
7.59                  0.99068822     -14.2288071
7.592                0.990655996     -14.2515072
7.594                0.990654183     -14.2734564
7.596                0.990652573     -14.2953944
7.598                0.990651163     -14.3173213
7.6                  0.990649955     -14.3392371
7.602                 0.99067934      -14.362058
7.604                0.990708913     -14.3848779
7.606                0.990738676     -14.4076967
7.608                0.990768629     -14.4305147
7.61                 0.990808002     -14.4553328
7.612                0.990847311     -14.4801487
7.614                0.990886557     -14.5049625
7.616                0.990925741     -14.5297741
7.618                0.990946131     -14.5563695
7.62                 0.990966495     -14.5829558
7.622                0.990986837     -14.6095327
7.624                0.991007157     -14.6361004
7.626                0.990993006     -14.6630437
7.628                0.990978863     -14.6899809
7.63                  0.99096473     -14.7169122
7.632                0.990950606     -14.7438374
7.634                0.990911081     -14.7695114
7.636                0.990871318     -14.7951828
7.638                0.990831318     -14.8208514
7.64                  0.99079108     -14.8465172
7.642                 0.99075316     -14.8702901
7.644                0.990714987     -14.8940532
7.646                 0.99067656     -14.9178065
7.648                0.990637884     -14.9415501
7.65                 0.990627155     -14.9642148
7.652                0.990616562     -14.9868672
7.654                0.990606106     -15.0095073
7.656                0.990595784     -15.0321351
7.658                0.990618784     -15.0553526
7.66                 0.990642042     -15.0785672
7.662                0.990665557     -15.1017789
7.664                0.990689327     -15.1249877
7.666                0.990728565     -15.1501128
7.668                 0.99076778     -15.1752379
7.67                 0.990806972     -15.2003629
7.672                0.990846142      -15.225488
7.674                0.990871895     -15.2526133
7.676                 0.99089756      -15.279731
7.678                0.990923138      -15.306841
7.68                 0.990948628     -15.3339435
7.682                0.990940428     -15.3618067
7.684                0.990932239     -15.3896624
7.686                0.990924062     -15.4175107
7.688                0.990915898     -15.4453516
7.69                 0.990877721     -15.4722335
7.692                0.990839384     -15.4991133
7.694                 0.99080089     -15.5259911
7.696                0.990762238     -15.5528668
7.698                0.990719228     -15.5778318
7.7                  0.990675942       -15.60279
7.702                0.990632382     -15.6277415
7.704                0.990588546     -15.6526864
7.706                0.990568936     -15.6762539
7.708                0.990549382     -15.6998088
7.71                 0.990529883     -15.7233512
7.712                 0.99051044     -15.7468812
7.714                0.990526023     -15.7706473
7.716                0.990541911     -15.7944079
7.718                0.990558101      -15.818163
7.72                 0.990574596     -15.8419126
7.722                0.990612319     -15.8674315
7.724                0.990650092     -15.8929513
7.726                0.990687917     -15.9184721
7.728                0.990725793     -15.9439938
7.73                 0.990756209     -15.9716827
7.732                0.990786486     -15.9993663
7.734                0.990816625     -16.0270444
7.736                0.990846628     -16.0547171
7.738                0.990844966     -16.0835343
7.74                 0.990843277     -16.1123429
7.742                 0.99084156      -16.141143
7.744                0.990839817     -16.1699345
7.746                0.990804243     -16.1981068
7.748                0.990768577     -16.2262764
7.75                 0.990732821     -16.2544435
7.752                0.990696973      -16.282608
7.754                0.990649844     -16.3089125
7.756                 0.99060245     -16.3352132
7.758                0.990554792     -16.3615099
7.76                 0.990506869     -16.3878027
7.762                0.990478407     -16.4124512
7.764                0.990449917     -16.4370878
7.766                0.990421398     -16.4617125
7.768                0.990392849     -16.4863256
7.77                 0.990399954     -16.5107979
7.772                0.990407384     -16.5352618
7.774                0.990415135     -16.5597172
7.776                0.990423207      -16.584164
7.778                0.990457899       -16.61017
7.78                 0.990492743     -16.6361766
7.782                0.990527738     -16.6621837
7.784                0.990562885     -16.6881915
7.786                0.990597156     -16.7164735
7.788                0.990631268     -16.7447526
7.79                  0.99066522     -16.7730286
7.792                0.990699009     -16.8013016
7.794                0.990704313     -16.8310908
7.796                0.990709516     -16.8608708
7.798                0.990714619     -16.8906417
7.8                  0.990719625     -16.9204034
7.802                 0.99068808     -16.9499381
7.804                0.990656478     -16.9794686
7.806                0.990624823      -17.008995
7.808                0.990593113     -17.0385173
7.81                 0.990543227     -17.0663133
7.812                0.990493112     -17.0941073
7.814                0.990442769     -17.1218994
7.816                0.990392199     -17.1496895
7.818                0.990355219     -17.1756119
7.82                 0.990318134     -17.2015241
7.822                0.990280944     -17.2274262
7.824                0.990243651     -17.2533182
7.826                 0.99024143      -17.278679
7.828                 0.99023952     -17.3040285
7.83                  0.99023792     -17.3293667
7.832                0.990236632     -17.3546936
7.834                0.990266782      -17.381307
7.836                  0.9902972     -17.4079191
7.838                0.990327888     -17.4345297
7.84                 0.990358843      -17.461139
7.842                0.990395808     -17.4900713
7.844                0.990432632     -17.5190029
7.846                0.990469316     -17.5479337
7.848                0.990505859     -17.5768635
7.85                 0.990518256     -17.6076591
7.852                0.990530456     -17.6384459
7.854                0.990542462     -17.6692236
7.856                0.990554273     -17.6999924
7.858                0.990527903     -17.7309633
7.86                  0.99050147     -17.7619277
7.862                0.990474976     -17.7928856
7.864                0.990448419     -17.8238371
7.866                0.990396968     -17.8532661
7.868                0.990345339      -17.882694
7.87                 0.990293533     -17.9121208
7.872                 0.99024155     -17.9415465
7.874                0.990196291     -17.9689418
7.876                0.990150874      -17.996329
7.878                0.990105296     -18.0237083
7.88                 0.990059558     -18.0510798
7.882                0.990047005     -18.0775107
7.884                0.990034723      -18.103928
7.886                 0.99002271     -18.1303316
7.888                0.990010964     -18.1567217
7.89                 0.990034834     -18.1840638
7.892                0.990059096     -18.2114011
7.894                0.990083749     -18.2387336
7.896                0.990108793     -18.2660614
7.898                0.990147136     -18.2956855
7.9                  0.990185411     -18.3253101
7.902                0.990223618     -18.3549352
7.904                0.990261754     -18.3845608
7.906                0.990281395     -18.4163678
7.908                0.990300739      -18.448167
7.91                 0.990319787     -18.4799583
7.912                0.990338539     -18.5117417
7.914                0.990319107     -18.5441966
7.916                0.990299545     -18.5766425
7.918                0.990279859     -18.6090793
7.92                  0.99026005     -18.6415071
7.922                0.990209208     -18.6727154
7.924                0.990158233      -18.703922
7.926                0.990107126     -18.7351269
7.928                0.990055889     -18.7663301
7.93                 0.990003686     -18.7954275
7.932                0.989951297     -18.8245194
7.934                0.989898723      -18.853606
7.936                0.989845966     -18.8826871
7.938                0.989822839     -18.9104477
7.94                 0.989799922     -18.9381934
7.942                0.989777214      -18.965924
7.944                0.989754718     -18.9936398
7.946                0.989770613     -19.0219174
7.948                0.989787019     -19.0501855
7.95                 0.989803935     -19.0784442
7.952                 0.98982136     -19.1066932
7.954                0.989859024     -19.1371285
7.956                0.989896754     -19.1675643
7.958                0.989934549     -19.1980004
7.96                 0.989972409     -19.2284369
7.962                  0.9899983      -19.261313
7.964                0.990023805     -19.2941833
7.966                0.990048923     -19.3270476
7.968                0.990073653     -19.3599058
7.97                 0.990061545     -19.3939027
7.972                0.990049179      -19.427888
7.974                0.990036557     -19.4618619
7.976                0.990023677     -19.4958241
7.978                0.989974664     -19.5289313
7.98                  0.98992553     -19.5620347
7.982                0.989876277     -19.5951343
7.984                0.989826904     -19.6282301
7.986                0.989768506     -19.6592189
7.988                0.989709925     -19.6902042
7.99                 0.989651162     -19.7211861
7.992                0.989592217     -19.7521648
7.994                  0.9895581     -19.7814672
7.996                0.989524128     -19.8107541
7.998                0.989490299     -19.8400256
8                    0.989456611     -19.8692819
8.002                0.989463118     -19.8986725
8.004                0.989470248     -19.9280478
8.006                0.989477999     -19.9574078
8.008                0.989486369     -19.9867521
8.01                 0.989521816     -20.0181033
8.012                0.989557539     -20.0494529
8.014                0.989593535     -20.0808005
8.016                0.989629804     -20.1121462
8.018                0.989661491     -20.1461316
8.02                 0.989692742     -20.1801135
8.022                0.989723555     -20.2140917
8.024                0.989753931     -20.2480662
8.026                 0.98975051     -20.2836668
8.028                0.989746623     -20.3192543
8.03                 0.989742273     -20.3548287
8.032                0.989737453     -20.3903896
8.034                0.989692442      -20.425546
8.036                0.989647251     -20.4606949
8.038                0.989601882     -20.4958365
8.04                 0.989556336     -20.5309707
8.042                0.989493344     -20.5641001
8.044                 0.98943019     -20.5972275
8.046                0.989366874     -20.6303529
8.048                0.989303398     -20.6634762
8.05                 0.989258274     -20.6946211
8.052                0.989213243     -20.7257509
8.054                0.989168299     -20.7568662
8.056                0.989123447     -20.7879669
8.058                0.989118837     -20.8187332
8.06                 0.989114956     -20.8494775
8.062                  0.9891118     -20.8801996
8.064                0.989109367     -20.9108993
8.066                0.989140028     -20.9433363
8.068                0.989171264     -20.9757659
8.07                 0.989203073     -21.0081879
8.072                0.989235455     -21.0406028
8.074                0.989271176     -21.0757823
8.076                0.989306485     -21.1109603
8.078                 0.98934138     -21.1461368
8.08                 0.989375859     -21.1813118
8.082                0.989381201     -21.2185644
8.084                0.989385785     -21.2558037
8.086                0.989389611     -21.2930293
8.088                0.989392679      -21.330241
8.09                 0.989353244      -21.367565
8.092                0.989313431     -21.4048768
8.094                0.989273248     -21.4421764
8.096                0.989232693     -21.4794635
8.098                0.989166594     -21.5149519
8.1                  0.989100335     -21.5504379
8.102                0.989033917     -21.5859215
8.104                0.988967339     -21.6214027
8.106                0.988911389     -21.6546616
8.108                0.988855506     -21.6879073
8.11                 0.988799687       -21.72114
8.112                0.988743933     -21.7543598
8.114                 0.98872671      -21.786771
8.116                0.988710349     -21.8191527
8.118                0.988694838     -21.8515047
8.12                 0.988680173     -21.8838267
8.122                0.988703511     -21.9175345
8.124                0.988727867     -21.9512248
8.126                 0.98875324     -21.9848971
8.128                0.988779628      -22.018551
8.13                 0.988817446     -22.0550153
8.132                0.988855019      -22.091479
8.134                0.988892343     -22.1279415
8.136                0.988929414     -22.1644034
8.138                0.988943589     -22.2033624
8.14                 0.988956604     -22.2423101
8.142                0.988968457      -22.281246
8.144                0.988979149     -22.3201694
8.146                0.988947203      -22.359752
8.148                0.988914443     -22.3993175
8.15                 0.988880871     -22.4388657
8.152                0.988846492     -22.4783962
8.154                0.988779576     -22.5164462
8.156                0.988712381     -22.5544909
8.158                0.988644913     -22.5925309
8.16                 0.988577173      -22.630566
8.162                 0.98851154     -22.6662286
8.164                0.988446004     -22.7018804
8.166                0.988380566     -22.7375214
8.168                0.988315225     -22.7731517
8.17                 0.988284876     -22.8075128
8.172                0.988255623     -22.8418363
8.174                0.988227453      -22.876122
8.176                0.988200367     -22.9103695
8.178                0.988214483     -22.9456111
8.18                 0.988230376     -22.9808179
8.182                 0.98824804     -23.0159885
8.184                0.988267469     -23.0511219
8.186                0.988305656     -23.0890448
8.188                0.988344078     -23.1269624
8.19                 0.988382735     -23.1648745
8.192                0.988421626     -23.2027813
8.194                 0.98844489     -23.2435793
8.196                0.988466443     -23.2843729
8.198                0.988486282     -23.3251604
8.2                    0.9885044     -23.3659406