! TOUCHSTONE file generated by CST DESIGN STUDIO
! Date and time: Mon Feb 10 16:49:11 2025
! Project name: C:\Work\MatlabApps\UnitCellType2OptimizationMatlab\CST\unitcell.cst
! Tree item: Tasks\Sweep1\SPara1\S-Parameters
! Header version: 2024
! Port assignment regex: !\s*Touchstone port\s*([0-9]+)\s*=\s*(CST MWS port|CST DES external port|CST DES block port)\s*(.+)\s* \(\"(.*)\"\)(\s*mode\s*([0-9]+))?.*
! Touchstone port assignment:
! Touchstone port 1 = CST DES external port 1 ("")
# GHz S MA R 50
7                    0.980612842     -3.65034669
7.002                0.980720242     -3.68946882
7.004                0.980823338     -3.72842927
7.006                0.980922194     -3.76722955
7.008                0.981016872     -3.80587117
7.01                 0.981081718     -3.84431966
7.012                0.981144607      -3.8825338
7.014                0.981205573     -3.92051661
7.016                0.981264648     -3.95827097
7.018                0.981306098     -3.99437466
7.02                 0.981347421     -4.03029397
7.022                0.981388623     -4.06603115
7.024                0.981429709     -4.10158844
7.026                0.981481594     -4.13532495
7.028                0.981532872     -4.16891854
7.03                 0.981583554     -4.20237104
7.032                0.981633653     -4.23568413
7.034                0.981712835     -4.26846694
7.036                0.981792326     -4.30107811
7.038                0.981872124     -4.33351995
7.04                 0.981952233     -4.36579473
7.042                0.982053435      -4.3991698
7.044                0.982156068     -4.43240153
7.046                0.982260119     -4.46549219
7.048                0.982365574     -4.49844417
7.05                 0.982469415       -4.533153
7.052                0.982572527       -4.567785
7.054                0.982674912     -4.60234079
7.056                0.982776572     -4.63682099
7.058                0.982857938     -4.67239716
7.06                 0.982936106     -4.70786577
7.062                0.983011118     -4.74322749
7.064                0.983083014     -4.77848311
7.066                0.983129413     -4.81342804
7.068                0.983173828      -4.8481956
7.07                 0.983216292     -4.88278798
7.072                0.983256832     -4.91720733
7.074                0.983284323     -4.95013948
7.076                0.983311789     -4.98291852
7.078                0.983339231     -5.01554623
7.08                 0.983366653     -5.04802427
7.082                0.983405408     -5.07894451
7.084                 0.98344386      -5.1097615
7.086                0.983482016     -5.14047637
7.088                0.983519886     -5.17109022
7.09                 0.983585078     -5.20131393
7.092                0.983650132     -5.23141626
7.094                0.983715054      -5.2613986
7.096                0.983779849      -5.2912623
7.098                0.983864074     -5.32221121
7.1                  0.983949367     -5.35303854
7.102                0.984035719     -5.38374595
7.104                0.984123121     -5.41433522
7.106                0.984207169     -5.44657699
7.108                0.984291302     -5.47874997
7.11                 0.984375513     -5.51085485
7.112                0.984459799      -5.5428924
7.114                0.984522924     -5.57589551
7.116                0.984583826     -5.60882614
7.118                0.984642531      -5.6416847
7.12                  0.98469906     -5.67447159
7.122                0.984731896     -5.70689019
7.124                0.984762783      -5.7391764
7.126                0.984791748     -5.77133176
7.128                0.984818815     -5.80335764
7.13                 0.984835255      -5.8339819
7.132                0.984851589     -5.86447601
7.134                0.984867821     -5.89484138
7.136                0.984883951      -5.9250794
7.138                0.984911547     -5.95390461
7.14                 0.984939131     -5.98264887
7.142                0.984966703     -6.01131308
7.144                0.984994267     -6.03989807
7.146                0.985048029     -6.06815394
7.148                 0.98510147     -6.09632566
7.15                 0.985154595     -6.12441407
7.152                0.985207413     -6.15241999
7.154                0.985279472     -6.18147293
7.156                0.985352169     -6.21042597
7.158                0.985425504      -6.2392804
7.16                 0.985499473     -6.26803766
7.162                0.985570119     -6.29839898
7.164                0.985641259       -6.328696
7.166                0.985712887     -6.35892956
7.168                0.985784998     -6.38910051
7.17                 0.985835461     -6.42020804
7.172                 0.98588453     -6.45126514
7.174                0.985932218     -6.48227192
7.176                0.985978538     -6.51322861
7.178                0.986001467     -6.54382005
7.18                 0.986022579     -6.57431489
7.182                0.986041895     -6.60471417
7.184                0.986059437      -6.6350189
7.186                0.986067259     -6.66397398
7.188                0.986074797     -6.69281805
7.19                 0.986082056     -6.72155228
7.192                 0.98608904     -6.75017778
7.194                0.986107181     -6.77745923
7.196                0.986125517     -6.80467174
7.198                0.986144049     -6.83181596
7.2                  0.986162779     -6.85889249
7.202                0.986206905     -6.88563884
7.204                0.986250717     -6.91232724
7.206                0.986294219     -6.93895819
7.208                0.986337418     -6.96553219
7.21                  0.98640047     -6.99310366
7.212                0.986463779     -7.02059644
7.214                0.986527344     -7.04801129
7.216                0.986591167     -7.07534907
7.218                0.986652865      -7.1042741
7.22                 0.986715181     -7.13313868
7.222                0.986778112     -7.16194358
7.224                0.986841651     -7.19068966
7.226                 0.98688363      -7.2204139
7.228                0.986924882     -7.25010015
7.23                 0.986965413      -7.2797486
7.232                0.987005225     -7.30935943
7.234                0.987021015     -7.33865618
7.236                0.987035217     -7.36788442
7.238                0.987047848     -7.39704479
7.24                 0.987058922     -7.42613777
7.242                0.987059879     -7.45392325
7.244                0.987060349     -7.48161534
7.246                0.987060338     -7.50921502
7.248                 0.98705985     -7.53672327
7.25                 0.987069756     -7.56290192
7.252                0.987079961     -7.58901773
7.254                0.987090464     -7.61507132
7.256                0.987101263     -7.64106324
7.258                0.987136777     -7.66668351
7.26                 0.987172101     -7.69226286
7.262                0.987207238     -7.71780162
7.264                0.987242192     -7.74330017
7.266                0.987297962     -7.76972486
7.268                0.987353701     -7.79609022
7.27                  0.98740941      -7.8223968
7.272                0.987465094     -7.84864525
7.274                0.987520688     -7.87647172
7.276                0.987576834     -7.90424223
7.278                0.987633532     -7.93195753
7.28                 0.987690777     -7.95961837
7.282                0.987727163     -7.98833878
7.284                0.987763313     -8.01702758
7.286                0.987799229     -8.04568491
7.288                0.987834911     -8.07431099
7.29                 0.987845604     -8.10271939
7.292                0.987855008     -8.13108051
7.294                0.987863135      -8.1593947
7.296                0.987869996     -8.18766233
7.298                0.987865324     -8.21466863
7.3                  0.987859988     -8.24159832
7.302                0.987853993     -8.26845222
7.304                0.987847348     -8.29523104
7.306                0.987849896     -8.32065918
7.308                0.987852741     -8.34602816
7.31                 0.987855881     -8.37133848
7.312                0.987859316     -8.39659057
7.314                0.987886787     -8.42139111
7.316                0.987914243     -8.44616051
7.318                0.987941687     -8.47089903
7.32                  0.98796912     -8.49560691
7.322                0.988018524     -8.52114983
7.324                0.988067731     -8.54665044
7.326                0.988116741     -8.57210896
7.328                0.988165559     -8.59752571
7.33                 0.988216892     -8.62451299
7.332                0.988268605     -8.65145033
7.334                0.988320698     -8.67833827
7.336                0.988373171     -8.70517741
7.338                0.988406138     -8.73317988
7.34                 0.988439192     -8.76115307
7.342                0.988472332     -8.78909731
7.344                0.988505553      -8.8170129
7.346                0.988512761     -8.84484242
7.348                0.988519015     -8.87263988
7.35                 0.988524323     -8.90040546
7.352                0.988528692     -8.92813934
7.354                 0.98851944     -8.95467208
7.356                0.988509404     -8.98114403
7.358                0.988498595     -9.00755595
7.36                 0.988487017     -9.03390848
7.362                0.988482894     -9.05886859
7.364                 0.98847898     -9.08377256
7.366                0.988475273     -9.10862095
7.368                 0.98847177     -9.13341418
7.37                 0.988491621     -9.15764622
7.372                0.988511633     -9.18185145
7.374                0.988531807     -9.20603009
7.376                0.988552143     -9.23018237
7.378                0.988595773     -9.25505666
7.38                 0.988639152     -9.27990222
7.382                0.988682284      -9.3047192
7.384                0.988725172     -9.32950792
7.386                0.988773559     -9.35585011
7.388                0.988822114     -9.38214963
7.39                 0.988870839     -9.40840691
7.392                0.988919735     -9.43462236
7.394                0.988951269     -9.46212209
7.396                0.988983053     -9.48959318
7.398                0.989015089     -9.51703588
7.4                  0.989047374     -9.54445053
7.402                0.989052824     -9.57195372
7.404                0.989057655     -9.59943481
7.406                0.989061873     -9.62689388
7.408                0.989065479     -9.65433103
7.41                 0.989052928     -9.68065442
7.412                0.989039559     -9.70693187
7.414                0.989025379     -9.73316385
7.416                0.989010395     -9.75935075
7.418                0.989000469     -9.78410403
7.42                  0.98899061     -9.80880514
7.422                0.988980815     -9.83345451
7.424                0.988971086     -9.85805249
7.426                0.988983696     -9.88195967
7.428                0.988996607     -9.90584079
7.43                 0.989009815     -9.92969604
7.432                0.989023321     -9.95352558
7.434                0.989061271     -9.97794409
7.436                0.989099021      -10.002344
7.438                0.989136569     -10.0267252
7.44                  0.98917392      -10.051088
7.442                0.989219883     -10.0769715
7.444                0.989265814     -10.1028207
7.446                0.989311714     -10.1286358
7.448                0.989357585     -10.1544172
7.45                 0.989388673     -10.1816034
7.452                0.989420046     -10.2087609
7.454                0.989451702       -10.23589
7.456                0.989483639     -10.2629913
7.458                0.989488369     -10.2903662
7.46                 0.989492779     -10.3177246
7.462                0.989496871     -10.3450665
7.464                0.989500646     -10.3723922
7.466                0.989485424     -10.3987182
7.468                0.989469427     -10.4250112
7.47                  0.98945266     -10.4512714
7.472                 0.98943513     -10.4774992
7.474                0.989419849     -10.5022524
7.476                0.989404469     -10.5269584
7.478                0.989388989     -10.5516179
7.48                  0.98937341     -10.5762311
7.482                 0.98937896     -10.6000057
7.484                0.989384888     -10.6237529
7.486                0.989391191     -10.6474728
7.488                0.989397868     -10.6711658
7.49                 0.989430136     -10.6952926
7.492                 0.98946232      -10.719407
7.494                0.989494421     -10.7435091
7.496                0.989526442     -10.7675991
7.498                0.989570382     -10.7931597
7.5                  0.989614136     -10.8186947
7.502                0.989657708     -10.8442042
7.504                0.989701099     -10.8696884
7.506                0.989732852     -10.8966971
7.508                0.989764819     -10.9236779
7.51                 0.989797004      -10.950631
7.512                0.989829407     -10.9775567
7.514                0.989834739     -11.0049785
7.516                0.989839985     -11.0323861
7.518                0.989845147     -11.0597797
7.52                 0.989850223     -11.0871592
7.522                0.989833347      -11.113685
7.524                0.989815808     -11.1401884
7.526                0.989797611     -11.1666697
7.528                0.989778759     -11.1931289
7.53                 0.989758653     -11.2180902
7.532                0.989738291     -11.2430109
7.534                0.989717675     -11.2678915
7.536                0.989696808     -11.2927322
7.538                0.989695325     -11.3165708
7.54                 0.989694227     -11.3403801
7.542                0.989693514     -11.3641603
7.544                0.989693181     -11.3879114
7.546                0.989719307     -11.4119128
7.548                0.989745507     -11.4359046
7.55                 0.989771781     -11.4598869
7.552                0.989798128     -11.4838599
7.554                0.989839734     -11.5092228
7.556                0.989881072     -11.5345685
7.558                0.989922144     -11.5598969
7.56                 0.989962953      -11.585208
7.562                 0.98999585     -11.6121451
7.564                0.990028828     -11.6390559
7.566                0.990061889     -11.6659406
7.568                0.990095034     -11.6927996
7.57                 0.990102044     -11.7203824
7.572                0.990109121     -11.7479509
7.574                0.990116265     -11.7755053
7.576                0.990123475     -11.8030457
7.578                0.990106021     -11.8299223
7.58                  0.99008806     -11.8567845
7.582                0.990069598     -11.8836324
7.584                0.990050636     -11.9104662
7.586                 0.99002657     -11.9358098
7.588                 0.99000213     -11.9611202
7.59                 0.989977319     -11.9863979
7.592                0.989952137     -12.0116432
7.594                0.989944032     -12.0357309
7.596                0.989936258     -12.0597878
7.598                0.989928815     -12.0838138
7.6                    0.9899217     -12.1078094
7.602                0.989941586     -12.1318542
7.604                 0.98996171     -12.1558893
7.606                0.989982072     -12.1799149
7.608                0.990002673      -12.203931
7.61                 0.990041656      -12.229235
7.612                0.990080369     -12.2545287
7.614                0.990118814     -12.2798121
7.616                0.990156993     -12.3050853
7.618                 0.99019124     -12.3320663
7.62                 0.990225405     -12.3590244
7.622                 0.99025949     -12.3859595
7.624                0.990293497     -12.4128717
7.626                0.990302909      -12.440745
7.628                0.990312447     -12.4686028
7.63                 0.990322111      -12.496445
7.632                0.990331901      -12.524272
7.634                0.990314565     -12.5516485
7.636                0.990296901     -12.5790158
7.638                0.990278912     -12.6063739
7.64                 0.990260595     -12.6337227
7.642                0.990232864     -12.6596167
7.644                0.990204694     -12.6854856
7.646                0.990176085     -12.7113295
7.648                0.990147043     -12.7371487
7.65                  0.99013224     -12.7616475
7.652                0.990117666      -12.786115
7.654                0.990103319     -12.8105514
7.656                0.990089196      -12.834957
7.658                0.990102262     -12.8591876
7.66                 0.990115714     -12.8834063
7.662                0.990129548     -12.9076129
7.664                0.990143763     -12.9318075
7.666                0.990179538     -12.9571533
7.668                0.990215121     -12.9824941
7.67                 0.990250513     -13.0078298
7.672                0.990285715     -13.0331605
7.674                0.990321408     -13.0602564
7.676                0.990356861     -13.0873336
7.678                0.990392077     -13.1143922
7.68                 0.990427055     -13.1414322
7.682                0.990439786     -13.1696716
7.684                0.990452613     -13.1978936
7.686                0.990465538     -13.2260985
7.688                 0.99047856     -13.2542864
7.69                  0.99046264     -13.2822851
7.692                0.990446556      -13.310277
7.694                0.990430309     -13.3382621
7.696                0.990413901     -13.3662405
7.698                0.990383517     -13.3928457
7.7                  0.990352689     -13.4194333
7.702                0.990321418     -13.4460037
7.704                0.990289708     -13.4725568
7.706                0.990268611     -13.4976532
7.708                0.990247614     -13.5227195
7.71                 0.990226715      -13.547756
7.712                0.990205913     -13.5727628
7.714                0.990211858     -13.5973496
7.716                0.990218291     -13.6219207
7.718                0.990225211     -13.6464758
7.72                 0.990232617     -13.6710153
7.722                0.990264416     -13.6965349
7.724                0.990296168     -13.7220522
7.726                0.990327873     -13.7475673
7.728                0.990359531     -13.7730801
7.73                 0.990396216     -13.8003821
7.732                0.990432539     -13.8276708
7.734                0.990468503      -13.854946
7.736                 0.99050411     -13.8822076
7.738                0.990520641     -13.9108986
7.74                 0.990537158      -13.939571
7.742                0.990553662      -13.968225
7.744                0.990570155     -13.9968607
7.746                0.990556543       -14.02559
7.748                0.990542894     -14.0543123
7.75                 0.990529208     -14.0830279
7.752                0.990515482     -14.1117367
7.754                0.990483204     -14.1392006
7.756                0.990450534     -14.1666536
7.758                0.990417473     -14.1940959
7.76                 0.990384023     -14.2215276
7.762                0.990356948     -14.2473889
7.764                0.990329842      -14.273223
7.766                0.990302701     -14.2990301
7.768                0.990275526     -14.3248105
7.77                 0.990273983     -14.3499186
7.772                0.990272981     -14.3750065
7.774                0.990272517     -14.4000742
7.776                0.990272587     -14.4251217
7.778                0.990299521     -14.4509432
7.78                 0.990326603     -14.4767627
7.782                0.990353834     -14.5025801
7.784                0.990381214     -14.5283955
7.786                0.990418367     -14.5559852
7.788                0.990455101     -14.5835668
7.79                 0.990491417     -14.6111402
7.792                0.990527315     -14.6387057
7.794                 0.99054794     -14.6679123
7.796                 0.99056838     -14.6971002
7.798                0.990588637     -14.7262695
7.8                  0.990608714     -14.7554201
7.802                0.990598459     -14.7849767
7.804                 0.99058822     -14.8145243
7.806                0.990577997     -14.8440632
7.808                0.990567792     -14.8735933
7.81                 0.990534647     -14.9020628
7.812                0.990501201     -14.9305264
7.814                0.990467457     -14.9589841
7.816                0.990433415      -14.987436
7.818                0.990400816     -15.0142364
7.82                 0.990368073     -15.0410141
7.822                0.990335186     -15.0677692
7.824                0.990302155      -15.094502
7.826                0.990292871     -15.1203079
7.828                0.990284124     -15.1460894
7.83                 0.990275909     -15.1718468
7.832                0.990268226     -15.1975799
7.834                0.990289422     -15.2238462
7.836                0.990310993     -15.2501079
7.838                0.990332938     -15.2763649
7.84                 0.990355258     -15.3026173
7.842                0.990391998     -15.3305914
7.844                0.990428347     -15.3585625
7.846                0.990464304     -15.3865302
7.848                 0.99049987     -15.4144947
7.85                 0.990524631     -15.4442897
7.852                0.990548998     -15.4740673
7.854                0.990572976     -15.5038275
7.856                0.990596564     -15.5335702
7.858                0.990590458     -15.5640458
7.86                 0.990584333     -15.5945093
7.862                0.990578191     -15.6249606
7.864                0.990572031     -15.6553998
7.866                0.990538875     -15.6850059
7.868                0.990505526     -15.7146089
7.87                 0.990471987     -15.7442087
7.872                0.990438256     -15.7738054
7.874                 0.99040046     -15.8017181
7.876                0.990362448     -15.8296133
7.878                 0.99032422     -15.8574914
7.88                 0.990285776     -15.8853526
7.882                0.990268344      -15.912023
7.884                0.990251395     -15.9386659
7.886                0.990234925     -15.9652817
7.888                0.990218931     -15.9918702
7.89                 0.990233343     -16.0187152
7.892                0.990248367     -16.0455504
7.894                0.990264002      -16.072376
7.896                0.990280246     -16.0991918
7.898                0.990315619     -16.1276284
7.9                  0.990350727     -16.1560651
7.902                0.990385571     -16.1845019
7.904                 0.99042015      -16.212939
7.906                0.990449119     -16.2433661
7.908                0.990477485     -16.2737787
7.91                 0.990505248     -16.3041766
7.912                0.990532412     -16.3345596
7.914                0.990531805     -16.3660221
7.916                0.990531037     -16.3974685
7.918                0.990530111      -16.428899
7.92                  0.99052903     -16.4603135
7.922                0.990497567     -16.4911923
7.924                0.990465999     -16.5220681
7.926                0.990434328     -16.5529409
7.928                0.990402553     -16.5838107
7.93                 0.990360749     -16.6130307
7.932                 0.99031871     -16.6422392
7.934                0.990276436     -16.6714364
7.936                0.990233929     -16.7006222
7.938                0.990208531     -16.7283844
7.94                 0.990183531     -16.7561178
7.942                0.990158924     -16.7838227
7.944                0.990134711     -16.8114991
7.946                0.990141325     -16.8391249
7.948                 0.99014878     -16.8667339
7.95                 0.990157073     -16.8943258
7.952                0.990166202     -16.9219004
7.954                0.990198612     -16.9509402
7.956                0.990231001      -16.979981
7.958                0.990263366     -17.0090228
7.96                 0.990295708     -17.0380656
7.962                0.990327969     -17.0692097
7.964                0.990359445     -17.1003436
7.966                0.990390138     -17.1314669
7.968                0.990420048     -17.1625795
7.97                 0.990425103      -17.195101
7.972                0.990429737     -17.2276029
7.974                0.990433952     -17.2600852
7.976                0.990437748     -17.2925479
7.978                0.990408866     -17.3248094
7.98                 0.990379898     -17.3570653
7.982                0.990350845     -17.3893156
7.984                0.990321707     -17.4215605
7.986                0.990276554     -17.4522446
7.988                0.990231192     -17.4829223
7.99                 0.990185621     -17.5135939
7.992                0.990139844     -17.5442593
7.994                0.990106469     -17.5732932
7.996                0.990073396     -17.6022989
7.998                0.990040623     -17.6312766
8                    0.990008145     -17.6602266
8.002                0.990006212     -17.6888031
8.004                0.990005334     -17.7173538
8.006                0.990005506     -17.7458785
8.008                0.990006724     -17.7743769
8.01                  0.99003505     -17.8041431
8.012                0.990063732     -17.8339078
8.014                0.990092762     -17.8636708
8.016                0.990122143     -17.8934322
8.018                 0.99015724     -17.9253621
8.02                 0.990191449     -17.9572865
8.022                0.990224771     -17.9892055
8.024                0.990257205     -18.0211185
8.026                 0.99026895      -18.054775
8.028                 0.99027988     -18.0884098
8.03                 0.990290001     -18.1220225
8.032                0.990299309     -18.1556131
8.034                0.990274699     -18.1893925
8.036                 0.99024989     -18.2231609
8.038                0.990224883     -18.2569185
8.04                 0.990199678     -18.2906654
8.042                0.990152481     -18.3230204
8.044                0.990105129     -18.3553728
8.046                0.990057621     -18.3877227
8.048                0.990009958       -18.42007
8.05                 0.989968838     -18.4506259
8.052                0.989927948      -18.481156
8.054                0.989887283     -18.5116609
8.056                0.989846844     -18.5421406
8.058                0.989835307     -18.5719014
8.06                 0.989825027     -18.6016263
8.062                0.989815997     -18.6313151
8.064                0.989808212     -18.6609673
8.066                0.989830449     -18.6916326
8.068                0.989853573     -18.7222887
8.07                  0.98987758     -18.7529353
8.072                0.989902473     -18.7835727
8.074                0.989938832     -18.8163895
8.076                0.989974338     -18.8492058
8.078                 0.99000899     -18.8820212
8.08                 0.990042787     -18.9148356
8.082                0.990061182     -18.9496868
8.084                0.990078229     -18.9845162
8.086                0.990093932     -19.0193232
8.088                0.990108293     -19.0541074
8.09                 0.990089232     -19.0895107
8.092                0.990069619     -19.1248955
8.094                0.990049463      -19.160262
8.096                0.990028763     -19.1956098
8.098                0.989980784      -19.229814
8.1                  0.989932664     -19.2640164
8.102                0.989884403     -19.2982173
8.104                0.989836001     -19.3324165
8.106                  0.9897875     -19.3647144
8.108                0.989739207     -19.3969913
8.11                 0.989691122     -19.4292475
8.112                0.989643242      -19.461483
8.114                0.989621229     -19.4926632
8.116                0.989600715     -19.5237966
8.118                0.989581684      -19.554883
8.12                 0.989564127      -19.585922
8.122                0.989578266     -19.6176697
8.124                 0.98959407     -19.6493935
8.126                0.989611537     -19.6810929
8.128                0.989630662     -19.7127673
8.13                 0.989666509      -19.746578
8.132                0.989701787     -19.7803908
8.134                0.989736495     -19.8142054
8.136                0.989770631      -19.848022
8.138                0.989795643     -19.8841318
8.14                 0.989818601     -19.9202234
8.142                0.989839507     -19.9562958
8.144                 0.98985836     -19.9923478
8.146                0.989846496     -20.0294553
8.148                0.989833313     -20.0665359
8.15                 0.989818817     -20.1035893
8.152                0.989803015     -20.1406152
8.154                0.989756254     -20.1768298
8.156                0.989709157     -20.2130397
8.158                0.989661732     -20.2492451
8.16                 0.989613979      -20.285446
8.162                0.989559221     -20.3197156
8.164                0.989504745     -20.3539702
8.166                 0.98945055     -20.3882098
8.168                0.989396634     -20.4224346
8.17                 0.989364009     -20.4552896
8.172                0.989333301     -20.4880874
8.174                0.989304493     -20.5208272
8.176                0.989277577     -20.5535085
8.178                0.989282036     -20.5865844
8.18                 0.989289468     -20.6196117
8.182                 0.98929986     -20.6525886
8.184                0.989313203      -20.685513
8.186                0.989346823      -20.720494
8.188                0.989380696     -20.7554727
8.19                 0.989414823      -20.790449
8.192                0.989449202      -20.825423
8.194                0.989481099      -20.862921
8.196                0.989509997     -20.9004114
8.198                0.989535893     -20.9378917
8.2                  0.989558782     -20.9753598