! TOUCHSTONE file generated by CST DESIGN STUDIO
! Date and time: Mon Feb 10 16:48:54 2025
! Project name: C:\Work\MatlabApps\UnitCellType2OptimizationMatlab\CST\unitcell.cst
! Tree item: Tasks\Sweep1\SPara1\S-Parameters
! Header version: 2024
! Port assignment regex: !\s*Touchstone port\s*([0-9]+)\s*=\s*(CST MWS port|CST DES external port|CST DES block port)\s*(.+)\s* \(\"(.*)\"\)(\s*mode\s*([0-9]+))?.*
! Touchstone port assignment:
! Touchstone port 1 = CST DES external port 1 ("")
# GHz S MA R 50
7                    0.995521893     -13.7598778
7.002                0.995479129     -13.7742944
7.004                0.995436285     -13.7887101
7.006                0.995393361     -13.8031248
7.008                0.995350359     -13.8175387
7.01                 0.995379893     -13.8320659
7.012                0.995409517     -13.8465935
7.014                0.995439231     -13.8611216
7.016                0.995469039     -13.8756505
7.018                 0.99554486     -13.8934445
7.02                 0.995620911     -13.9112398
7.022                0.995697193     -13.9290363
7.024                0.995773707     -13.9468342
7.026                0.995837946      -13.968808
7.028                0.995902401     -13.9907841
7.03                 0.995967073     -14.0127619
7.032                0.996031962     -14.0347415
7.034                0.996035128     -14.0589643
7.036                0.996038307     -14.0831881
7.038                0.996041501      -14.107413
7.04                 0.996044708      -14.131639
7.042                0.995979803     -14.1546736
7.044                0.995914705     -14.1777071
7.046                0.995849414     -14.2007396
7.048                0.995783927     -14.2237707
7.05                 0.995692011     -14.2430662
7.052                0.995599865     -14.2623594
7.054                 0.99550749     -14.2816505
7.056                0.995414885     -14.3009393
7.058                0.995356348     -14.3166753
7.06                 0.995297696     -14.3324096
7.062                0.995238925     -14.3481427
7.064                0.995180035     -14.3638747
7.066                0.995191214     -14.3788332
7.068                0.995202444      -14.393792
7.07                  0.99521372     -14.4087511
7.072                0.995225042     -14.4237105
7.074                0.995292583     -14.4412639
7.076                0.995360327     -14.4588187
7.078                0.995428273     -14.4763748
7.08                 0.995496422     -14.4939323
7.082                0.995567769     -14.5156737
7.084                0.995639351     -14.5374171
7.086                0.995711169     -14.5591625
7.088                0.995783218       -14.58091
7.09                 0.995803485     -14.6055827
7.092                0.995823824     -14.6302569
7.094                0.995844235     -14.6549326
7.096                0.995864719     -14.6796099
7.098                0.995814495      -14.703989
7.1                  0.995764113     -14.7283676
7.102                0.995713578     -14.7527458
7.104                 0.99566289     -14.7771236
7.106                0.995572244     -14.7982399
7.108                0.995481359     -14.8193542
7.11                 0.995390238     -14.8404664
7.112                0.995298881     -14.8615766
7.114                0.995226763      -14.878845
7.116                0.995154491     -14.8961121
7.118                0.995082063     -14.9133777
7.12                 0.995009485     -14.9306418
7.122                0.995001475     -14.9462956
7.124                0.994993468     -14.9619497
7.126                0.994985462     -14.9776039
7.128                0.994977466     -14.9932584
7.13                 0.995033278     -15.0107335
7.132                0.995089259       -15.02821
7.134                0.995145407     -15.0456877
7.136                0.995201722     -15.0631668
7.138                0.995276365     -15.0846563
7.14                 0.995351251     -15.1061481
7.142                0.995426377      -15.127642
7.144                0.995501746      -15.149138
7.146                 0.99553744     -15.1741077
7.148                0.995573257     -15.1990793
7.15                 0.995609197      -15.224053
7.152                0.995645258     -15.2490287
7.154                 0.99561128     -15.2745979
7.156                0.995577198     -15.3001673
7.158                0.995543012      -15.325737
7.16                 0.995508718     -15.3513067
7.162                0.995423085     -15.3742332
7.164                0.995337219     -15.3971581
7.166                0.995251121     -15.4200813
7.168                0.995164791     -15.4430028
7.17                  0.99508226      -15.461986
7.172                0.994999543     -15.4809672
7.174                 0.99491664     -15.4999468
7.176                0.994833552     -15.5189247
7.178                0.994806672     -15.5355526
7.18                 0.994779754     -15.5521803
7.182                0.994752796     -15.5688078
7.184                0.994725796     -15.5854353
7.186                0.994767212     -15.6030391
7.188                0.994808758     -15.6206442
7.19                 0.994850433     -15.6382506
7.192                0.994892239     -15.6558585
7.194                0.994966464     -15.6771371
7.196                0.995040925      -15.698418
7.198                0.995115623     -15.7197011
7.2                  0.995190556     -15.7409867
7.202                0.995239531     -15.7661321
7.204                0.995288673     -15.7912799
7.206                0.995337981       -15.81643
7.208                0.995387456     -15.8415825
7.21                 0.995370744     -15.8681876
7.212                0.995353977     -15.8947938
7.214                0.995337159     -15.9214009
7.216                0.995320291      -15.948009
7.218                0.995243247     -15.9727135
7.22                 0.995165982     -15.9974167
7.222                0.995088501     -16.0221188
7.224                0.995010803     -16.0468197
7.226                0.994921572      -16.067675
7.228                0.994832129     -16.0885286
7.23                 0.994742475     -16.1093805
7.232                0.994652613     -16.1302306
7.234                0.994608137     -16.1481179
7.236                0.994563578     -16.1660048
7.238                0.994518937     -16.1838913
7.24                  0.99447422     -16.2017776
7.242                0.994499291     -16.2197748
7.244                 0.99452445     -16.2377732
7.246                0.994549697     -16.2557729
7.248                0.994575033     -16.2737737
7.25                 0.994645183     -16.2949503
7.252                0.994715558     -16.3161294
7.254                0.994786156     -16.3373108
7.256                0.994856975     -16.3584945
7.258                0.994916425     -16.3837613
7.26                 0.994976074     -16.4090309
7.262                0.995035923     -16.4343032
7.264                 0.99509597     -16.4595782
7.266                0.995096433     -16.4870959
7.268                0.995096901     -16.5146152
7.27                 0.995097374     -16.5421361
7.272                0.995097847     -16.5696585
7.274                0.995032071     -16.5960888
7.276                0.994966103     -16.6225186
7.278                0.994899944     -16.6489478
7.28                 0.994833595     -16.6753764
7.282                0.994741039     -16.6982294
7.284                 0.99464825     -16.7210804
7.286                0.994555233     -16.7439299
7.288                0.994461986     -16.7667777
7.29                 0.994401373     -16.7861906
7.292                0.994340638     -16.8056028
7.294                 0.99427978     -16.8250143
7.296                0.994218799     -16.8444252
7.298                0.994225919     -16.8630898
7.3                  0.994233083     -16.8817555
7.302                0.994240293     -16.9004222
7.304                0.994247551     -16.9190901
7.306                 0.99431001      -16.940307
7.308                0.994372668     -16.9615262
7.31                 0.994435525     -16.9827477
7.312                0.994498583      -17.003972
7.314                0.994565284      -17.029329
7.316                0.994632209     -17.0546889
7.318                0.994699357     -17.0800518
7.32                 0.994766728     -17.1054178
7.322                0.994783709     -17.1337227
7.324                0.994800747     -17.1620301
7.326                0.994817844     -17.1903397
7.328                0.994835001     -17.2186516
7.33                 0.994782723     -17.2467391
7.332                0.994730287     -17.2748266
7.334                0.994677695     -17.3029143
7.336                0.994624946      -17.331002
7.338                0.994532482     -17.3559451
7.34                 0.994439779     -17.3808868
7.342                0.994346836     -17.4058271
7.344                0.994253655     -17.4307657
7.346                0.994178832     -17.4519578
7.348                0.994103848      -17.473149
7.35                 0.994028702     -17.4943394
7.352                0.993953395      -17.515529
7.354                0.993941362     -17.5351469
7.356                0.993929337     -17.5547656
7.358                0.993917311      -17.574385
7.36                 0.993905285     -17.5940053
7.362                0.993956414      -17.615434
7.364                0.994007715     -17.6368652
7.366                0.994059185     -17.6582987
7.368                0.994110823     -17.6797345
7.37                 0.994181099     -17.7051714
7.372                 0.99425161     -17.7306116
7.374                0.994322357      -17.756055
7.376                0.994393336     -17.7815017
7.378                0.994425501     -17.8104541
7.38                 0.994457777     -17.8394093
7.382                0.994490165     -17.8683673
7.384                0.994522658     -17.8973282
7.386                0.994485824     -17.9269509
7.388                0.994448877     -17.9565744
7.39                 0.994411819     -17.9861987
7.392                0.994374649     -18.0158239
7.394                0.994286248     -18.0428935
7.396                0.994197603     -18.0699618
7.398                 0.99410872      -18.097029
7.4                  0.994019598     -18.1240951
7.402                 0.99393381     -18.1472952
7.404                0.993847828     -18.1704941
7.406                 0.99376165      -18.193692
7.408                0.993675278     -18.2168888
7.41                   0.9936445     -18.2377745
7.412                0.993613677     -18.2586607
7.414                0.993582808     -18.2795476
7.416                0.993551898     -18.3004351
7.418                0.993589212     -18.3223256
7.42                 0.993626658     -18.3442185
7.422                0.993664238     -18.3661137
7.424                0.993701954     -18.3880115
7.426                0.993772365     -18.4136144
7.428                0.993843012     -18.4392207
7.43                 0.993913896     -18.4648305
7.432                0.993985017     -18.4904438
7.434                0.994030415     -18.5199928
7.436                0.994075969     -18.5495456
7.438                 0.99412168     -18.5791017
7.44                 0.994167548     -18.6086613
7.442                0.994147051     -18.6397497
7.444                0.994126491     -18.6708398
7.446                0.994105868     -18.7019315
7.448                0.994085182     -18.7330247
7.45                 0.994003754     -18.7622717
7.452                0.993922096     -18.7915181
7.454                 0.99384021     -18.8207639
7.456                0.993758094     -18.8500088
7.458                0.993663944     -18.8754279
7.46                 0.993569568      -18.900846
7.462                0.993474968      -18.926263
7.464                0.993380142     -18.9516789
7.466                0.993330685      -18.974142
7.468                0.993281141      -18.996605
7.47                 0.993231505     -19.0190684
7.472                0.993181778     -19.0415321
7.474                0.993202512     -19.0641352
7.476                0.993223342     -19.0867405
7.478                0.993244263      -19.109348
7.48                 0.993265277     -19.1319578
7.482                0.993331962     -19.1578167
7.484                0.993398875     -19.1836793
7.486                0.993466017     -19.2095456
7.488                0.993533386     -19.2354156
7.49                 0.993589646     -19.2654947
7.492                0.993646103     -19.2955777
7.494                0.993702756     -19.3256647
7.496                0.993759599     -19.3557558
7.498                0.993756113     -19.3882001
7.5                   0.99375262     -19.4206469
7.502                 0.99374912     -19.4530961
7.504                0.993745612     -19.4855477
7.506                0.993674511     -19.5169751
7.508                0.993603197     -19.5484025
7.51                 0.993531675     -19.5798299
7.512                0.993459946     -19.6112573
7.514                0.993361021     -19.6391027
7.516                0.993261847      -19.666947
7.518                0.993162424     -19.6947903
7.52                 0.993062754     -19.7226326
7.522                0.992995858     -19.7470108
7.524                0.992928825     -19.7713891
7.526                0.992861655     -19.7957675
7.528                0.992794352      -19.820146
7.53                 0.992796395     -19.8437854
7.532                0.992798484     -19.8674269
7.534                0.992800619     -19.8910705
7.536                0.992802806     -19.9147165
7.538                0.992861707     -19.9410026
7.54                 0.992920817     -19.9672925
7.542                0.992980136     -19.9935863
7.544                0.993039665     -20.0198838
7.546                0.993103387     -20.0504829
7.548                0.993167334     -20.0810868
7.55                 0.993231507     -20.1116952
7.552                0.993295906     -20.1423081
7.554                0.993308864     -20.1760142
7.556                 0.99332187     -20.2097237
7.558                0.993334924     -20.2434365
7.56                 0.993348025     -20.2771526
7.562                0.993289684     -20.3107257
7.564                0.993231167     -20.3442996
7.566                0.993172474     -20.3778743
7.568                0.993113603     -20.4114495
7.57                 0.993013527     -20.4418567
7.572                0.992913189     -20.4722631
7.574                0.992812587     -20.5026687
7.576                0.992711722     -20.5330735
7.578                0.992629392     -20.5596712
7.58                 0.992546884     -20.5862684
7.582                0.992464194     -20.6128655
7.584                0.992381322     -20.6394625
7.586                0.992363658     -20.6644757
7.588                0.992345994     -20.6894907
7.59                 0.992328327     -20.7145076
7.592                0.992310657     -20.7395263
7.594                0.992358486      -20.766465
7.596                0.992406496     -20.7934075
7.598                0.992454688     -20.8203539
7.6                  0.992503064     -20.8473044
7.602                0.992571049     -20.8784787
7.604                 0.99263928     -20.9096581
7.606                0.992707756     -20.9408424
7.608                0.992776474      -20.972032
7.61                 0.992804955     -21.0069543
7.612                 0.99283354     -21.0418808
7.614                 0.99286223     -21.0768115
7.616                0.992891023     -21.1117463
7.618                0.992847411     -21.1474637
7.62                 0.992803659     -21.1831829
7.622                0.992759771     -21.2189037
7.624                0.992715749     -21.2546261
7.626                0.992617819     -21.2877583
7.628                0.992519618       -21.32089
7.63                 0.992421147     -21.3540213
7.632                0.992322406      -21.387152
7.634                0.992226569     -21.4162908
7.636                0.992130508     -21.4454293
7.638                0.992034223     -21.4745676
7.64                 0.991937718     -21.5037054
7.642                0.991899123     -21.5304587
7.644                0.991860471     -21.5572137
7.646                0.991821763     -21.5839703
7.648                0.991783008     -21.6107287
7.65                 0.991815941     -21.6385733
7.652                0.991849019     -21.6664218
7.654                0.991882242     -21.6942741
7.656                0.991915611     -21.7221303
7.658                0.991983796     -21.7539484
7.66                 0.992052238     -21.7857721
7.662                0.992120933     -21.8176012
7.664                0.992189883     -21.8494358
7.666                0.992232171     -21.8855045
7.668                0.992274616     -21.9215784
7.67                 0.992317217     -21.9576573
7.672                0.992359972     -21.9937413
7.674                  0.9923328     -22.0315446
7.676                0.992305543     -22.0693504
7.678                0.992278201     -22.1071589
7.68                 0.992250768     -22.1449698
7.682                0.992158847     -22.1809254
7.684                0.992066662      -22.216881
7.686                0.991974212     -22.2528368
7.688                0.991881497     -22.2887926
7.69                 0.991775444     -22.3207787
7.692                0.991669129     -22.3527642
7.694                0.991562552     -22.3847493
7.696                0.991455713     -22.4167341
7.698                0.991396516     -22.4456363
7.7                  0.991337211     -22.4745398
7.702                0.991277794     -22.5034446
7.704                0.991218267     -22.5323509
7.706                0.991233448     -22.5614492
7.708                 0.99124873     -22.5905514
7.71                 0.991264112     -22.6196574
7.712                0.991279598     -22.6487675
7.714                 0.99134395     -22.6814004
7.716                0.991408553     -22.7140391
7.718                0.991473408     -22.7466836
7.72                 0.991538513     -22.7793345
7.722                0.991592112     -22.8165612
7.724                0.991645915     -22.8537938
7.726                0.991699922     -22.8910324
7.728                0.991754131      -22.928277
7.73                 0.991744011     -22.9681505
7.732                0.991733855     -23.0080279
7.734                0.991723671     -23.0479089
7.736                0.991713456     -23.0877936
7.738                0.991630647     -23.1266801
7.74                 0.991547586     -23.1655674
7.742                0.991464275     -23.2044553
7.744                0.991380714      -23.243344
7.746                0.991267528     -23.2784743
7.748                0.991154047     -23.3136044
7.75                 0.991040272     -23.3487342
7.752                0.990926206     -23.3838635
7.754                0.990846857     -23.4153304
7.756                0.990767341     -23.4467984
7.758                0.990687656     -23.4782676
7.76                 0.990607805     -23.5097379
7.762                0.990602458     -23.5404699
7.764                0.990597168     -23.5712055
7.766                0.990591926     -23.6019448
7.768                0.990586733     -23.6326879
7.77                 0.990642924      -23.666351
7.772                0.990699356     -23.7000205
7.774                0.990756025     -23.7336962
7.776                0.990812932     -23.7673781
7.778                0.990874719     -23.8058056
7.78                  0.99093675       -23.84424
7.782                0.990999024     -23.8826814
7.784                0.991061539     -23.9211298
7.786                0.991068475     -23.9630476
7.788                0.991075441     -24.0049702
7.79                 0.991082439     -24.0468976
7.792                0.991089461     -24.0888299
7.794                0.991018736     -24.1307239
7.796                 0.99094779     -24.1726195
7.798                 0.99087662     -24.2145166
7.8                  0.990805228     -24.2564152
7.802                 0.99068851     -24.2949703
7.804                0.990571468     -24.3335249
7.806                0.990454107     -24.3720795
7.808                0.990336426      -24.410634
7.81                 0.990238364       -24.44511
7.812                0.990140078     -24.4795868
7.814                0.990041568     -24.5140646
7.816                0.989942833     -24.5485432
7.818                0.989914963     -24.5813491
7.82                 0.989887082     -24.6141585
7.822                0.989859191     -24.6469715
7.824                0.989831292     -24.6797881
7.826                 0.98987517     -24.7147766
7.828                0.989919259     -24.7497716
7.83                  0.98996356      -24.784773
7.832                0.990008075     -24.8197814
7.834                0.990074453     -24.8595142
7.836                0.990141106     -24.8992548
7.838                0.990208034     -24.9390034
7.84                 0.990275237     -24.9787598
7.842                0.990298534     -25.0227456
7.844                0.990321922     -25.0667378
7.846                0.990345405     -25.1107363
7.848                0.990368981     -25.1547409
7.85                 0.990312774     -25.1997411
7.852                0.990256379     -25.2447438
7.854                  0.9901998     -25.2897491
7.856                0.990143033     -25.3347568
7.858                0.990026274     -25.3770263
7.86                 0.989909177      -25.419296
7.862                0.989791744     -25.4615659
7.864                0.989673974     -25.5038357
7.866                0.989558794      -25.541782
7.868                0.989443333      -25.579729
7.87                  0.98932759     -25.6176768
7.872                0.989211565     -25.6556254
7.874                0.989159147     -25.6910008
7.876                0.989106659     -25.7263792
7.878                0.989054094     -25.7617609
7.88                 0.989001451      -25.797146
7.882                0.989028343     -25.8338036
7.884                0.989055413     -25.8704678
7.886                0.989082656     -25.9071388
7.888                0.989110072     -25.9438163
7.89                 0.989176581     -25.9849982
7.892                0.989243386     -26.0261891
7.894                0.989310487     -26.0673888
7.896                0.989377884     -26.1085977
7.898                0.989416046     -26.1546595
7.9                  0.989454368      -26.200729
7.902                0.989492848     -26.2468062
7.904                0.989531479     -26.2928913
7.906                0.989492127     -26.3410458
7.908                0.989452639      -26.389204
7.91                 0.989413015     -26.4373659
7.912                0.989373255     -26.4855315
7.914                0.989261004     -26.5317673
7.916                0.989148405     -26.5780035
7.918                0.989035464     -26.6242404
7.92                  0.98892218      -26.670478
7.922                 0.98879327     -26.7123785
7.924                0.988664024     -26.7542796
7.926                0.988534444     -26.7961815
7.928                0.988404529      -26.838084
7.93                 0.988327439     -26.8766127
7.932                0.988250201     -26.9151446
7.934                0.988172814     -26.9536796
7.936                0.988095284     -26.9922177
7.938                0.988101562     -27.0310536
7.94                 0.988107962     -27.0698962
7.942                0.988114485     -27.1087455
7.944                0.988121137     -27.1476021
7.946                0.988182989     -27.1905344
7.948                0.988245147     -27.2334767
7.95                 0.988307611     -27.2764288
7.952                0.988370383     -27.3193908
7.954                0.988420427     -27.3676657
7.956                0.988470691     -27.4159503
7.958                0.988521176     -27.4642444
7.96                 0.988571882     -27.5125478
7.962                0.988549846      -27.563989
7.964                 0.98852773     -27.6154355
7.966                0.988505534      -27.666887
7.968                0.988483254     -27.7183435
7.97                 0.988378233      -27.768822
7.972                0.988272871     -27.8193017
7.974                0.988167168     -27.8697825
7.976                0.988061121     -27.9202641
7.978                0.987920787      -27.966591
7.98                 0.987780066     -28.0129186
7.982                0.987638958     -28.0592468
7.984                0.987497463     -28.1055757
7.986                0.987394919     -28.1478333
7.988                0.987292154     -28.1900935
7.99                 0.987189162     -28.2323566
7.992                0.987085945     -28.2746226
7.994                0.987067568     -28.3161327
7.996                0.987049255     -28.3576496
7.998                0.987031001     -28.3991732
8                    0.987012807     -28.4407036
8.002                0.987065064     -28.4856909
8.004                0.987117625      -28.530689
8.006                0.987170492     -28.5756979
8.008                0.987223666     -28.6207177
8.01                 0.987282822     -28.6713416
8.012                0.987342263     -28.7219779
8.014                 0.98740199     -28.7726255
8.016                0.987461995      -28.823285
8.018                0.987458339     -28.8781152
8.02                  0.98745467     -28.9329522
8.022                0.987450987     -28.9877959
8.024                0.987447291     -29.0426464
8.026                0.987353774     -29.0976512
8.028                0.987259922     -29.1526577
8.03                 0.987165742     -29.2076658
8.032                0.987071224     -29.2626747
8.034                0.986923653     -29.3139742
8.036                0.986775649     -29.3652741
8.038                 0.98662721     -29.4165744
8.04                 0.986478339     -29.4678751
8.042                0.986351324     -29.5145777
8.044                0.986224001     -29.5612831
8.046                0.986096372     -29.6079911
8.048                0.985968436     -29.6547019
8.05                 0.985922056     -29.6995861
8.052                0.985875673     -29.7444766
8.054                0.985829274     -29.7893739
8.056                0.985782869     -29.8342783
8.058                0.985819731     -29.8818182
8.06                 0.985856885       -29.92937
8.062                0.985894331     -29.9769335
8.064                 0.98593207     -30.0245088
8.066                0.985995479     -30.0777541
8.068                0.986059236     -30.1310135
8.07                 0.986123341     -30.1842866
8.072                0.986187783     -30.2375745
8.074                0.986201245     -30.2959906
8.076                0.986214767     -30.3544155
8.078                0.986228349     -30.4128493
8.08                 0.986241985     -30.4712918
8.082                0.986162267     -30.5311062
8.084                0.986082239     -30.5909226
8.086                0.986001902     -30.6507409
8.088                0.985921253     -30.7105612
8.09                 0.985769783     -30.7673663
8.092                0.985617822     -30.8241709
8.094                0.985465379     -30.8809753
8.096                0.985312455     -30.9377788
8.098                0.985161819     -30.9896548
8.1                  0.985010789     -31.0415333
8.102                0.984859365      -31.093414
8.104                0.984707548     -31.1452972
8.106                0.984629978     -31.1942819
8.108                0.984552307     -31.2432732
8.11                 0.984474531     -31.2922712
8.112                0.984396651      -31.341276
8.114                0.984412127     -31.3919359
8.116                 0.98442789      -31.442609
8.118                 0.98444392     -31.4932949
8.12                 0.984460223     -31.5439938
8.122                0.984522511     -31.6001893
8.124                0.984585214     -31.6564014
8.126                0.984648334     -31.7126302
8.128                0.984711874     -31.7688756
8.13                 0.984740643     -31.8310923
8.132                0.984769553     -31.8933215
8.134                0.984798607     -31.9555623
8.136                 0.98482779     -32.0178152
8.138                0.984764184     -32.0827509
8.14                 0.984700286     -32.1476888
8.142                0.984636097     -32.2126288
8.144                0.984571615     -32.2775707
8.146                0.984420392       -32.34041
8.148                0.984268631     -32.4032475
8.15                 0.984116333     -32.4660831
8.152                0.983963499     -32.5289169
8.154                0.983791576     -32.5867444
8.156                 0.98361916     -32.6445722
8.158                0.983446254     -32.7024013
8.16                 0.983272865     -32.7602316
8.162                0.983162436     -32.8141669
8.164                0.983051806      -32.868109
8.166                0.982940975     -32.9220581
8.168                0.982829944     -32.9760141
8.17                 0.982819245     -33.0305078
8.172                0.982808798     -33.0850158
8.174                0.982798593      -33.139538
8.176                0.982788644     -33.1940753
8.178                0.982844863     -33.2537261
8.18                 0.982901597     -33.3133978
8.182                0.982958851     -33.3730904
8.184                0.983016629     -33.4328038
8.186                0.983058855       -33.49919
8.188                0.983101345     -33.5655922
8.19                   0.9831441     -33.6320103
8.192                0.983187119     -33.6984443
8.194                  0.9831418     -33.7689619
8.196                0.983096181     -33.8394823
8.198                0.983050278     -33.9100042
8.2                  0.983004081     -33.9805274