! TOUCHSTONE file generated by CST DESIGN STUDIO
! Date and time: Mon Feb 10 16:41:37 2025
! Project name: C:\Work\MatlabApps\UnitCellType2OptimizationMatlab\CST\unitcell.cst
! Tree item: Tasks\Sweep1\SPara1\S-Parameters
! Header version: 2024
! Port assignment regex: !\s*Touchstone port\s*([0-9]+)\s*=\s*(CST MWS port|CST DES external port|CST DES block port)\s*(.+)\s* \(\"(.*)\"\)(\s*mode\s*([0-9]+))?.*
! Touchstone port assignment:
! Touchstone port 1 = CST DES external port 1 ("")
# GHz S MA R 50
7                    0.988740609     -9.32415204
7.002                0.988734707     -9.34035544
7.004                0.988728375     -9.35654757
7.006                0.988721613     -9.37272862
7.008                0.988714425     -9.38889879
7.01                 0.988717525     -9.40509333
7.012                0.988720676     -9.42126515
7.014                0.988723879     -9.43741439
7.016                0.988727131     -9.45354121
7.018                0.988739576     -9.46978331
7.02                 0.988752216     -9.48601546
7.022                0.988765051     -9.50223772
7.024                0.988778079     -9.51845013
7.026                0.988800541     -9.53483751
7.028                0.988822665      -9.5512239
7.03                 0.988844452     -9.56760922
7.032                0.988865903     -9.58399343
7.034                0.988897142     -9.60064469
7.036                0.988927991     -9.61728166
7.038                0.988958452     -9.63390432
7.04                 0.988988529     -9.65051269
7.042                0.989027014     -9.66749655
7.044                0.989065573     -9.68446329
7.046                0.989104208     -9.70141316
7.048                0.989142922     -9.71834641
7.05                 0.989188359     -9.73571589
7.052                0.989233859     -9.75308018
7.054                0.989279423     -9.77043932
7.056                 0.98932505     -9.78779338
7.058                0.989376451     -9.80564133
7.06                 0.989427676     -9.82348103
7.062                0.989478728     -9.84131254
7.064                0.989529607     -9.85913598
7.066                0.989584766     -9.87751717
7.068                0.989640028     -9.89587828
7.07                 0.989695392     -9.91421945
7.072                0.989750857     -9.93254087
7.074                0.989808284     -9.95145857
7.076                0.989866036     -9.97036179
7.078                 0.98992411     -9.98925059
7.08                 0.989982507     -10.0081251
7.082                0.990041702      -10.027585
7.084                0.990100788     -10.0470394
7.086                0.990159765     -10.0664882
7.088                0.990218636     -10.0859315
7.09                 0.990277852     -10.1059597
7.092                0.990336746     -10.1259715
7.094                 0.99039532      -10.145967
7.096                0.990453578     -10.1659461
7.098                0.990510524     -10.1865283
7.1                  0.990567564     -10.2070871
7.102                0.990624702     -10.2276225
7.104                0.990681939     -10.2481348
7.106                0.990735698     -10.2692224
7.108                 0.99078971     -10.2902978
7.11                 0.990843974     -10.3113609
7.112                0.990898489     -10.3324119
7.114                0.990948362     -10.3539869
7.116                 0.99099823     -10.3755536
7.118                0.991048094     -10.3971119
7.12                 0.991097953      -10.418662
7.122                0.991142194     -10.4407012
7.124                0.991186514     -10.4627225
7.126                0.991230911     -10.4847263
7.128                0.991275385     -10.5067126
7.13                 0.991312618     -10.5291399
7.132                0.991350205     -10.5515504
7.134                0.991388142     -10.5739443
7.136                0.991426427     -10.5963216
7.138                0.991456601     -10.6190573
7.14                 0.991486864     -10.6417867
7.142                0.991517219     -10.6645098
7.144                0.991547664     -10.6872264
7.146                0.991570299     -10.7102132
7.148                0.991592693     -10.7331894
7.15                 0.991614849     -10.7561551
7.152                0.991636768     -10.7791102
7.154                0.991650639      -10.802282
7.156                0.991664519     -10.8254353
7.158                0.991678407     -10.8485702
7.16                 0.991692306     -10.8716868
7.162                0.991697375     -10.8949401
7.164                0.991702667     -10.9181829
7.166                 0.99170818     -10.9414155
7.168                0.991713915     -10.9646379
7.17                 0.991710878     -10.9879065
7.172                0.991707823     -11.0111717
7.174                0.991704749     -11.0344335
7.176                0.991701658      -11.057692
7.178                0.991690463     -11.0809224
7.18                 0.991679183     -11.1041416
7.182                0.991667819     -11.1273496
7.184                 0.99165637     -11.1505467
7.186                0.991636834     -11.1736618
7.188                0.991617497     -11.1967624
7.19                 0.991598355     -11.2198487
7.192                0.991579408     -11.2429205
7.194                 0.99155273     -11.2658274
7.196                0.991526154     -11.2887307
7.198                0.991499679     -11.3116304
7.2                  0.991473304     -11.3345263
7.202                 0.99144081     -11.3571698
7.204                0.991408007     -11.3798127
7.206                0.991374896      -11.402455
7.208                0.991341479     -11.4250968
7.21                 0.991303557      -11.447443
7.212                0.991265358     -11.4697812
7.214                0.991226886     -11.4921116
7.216                0.991188142     -11.5144343
7.218                0.991145694     -11.5364257
7.22                 0.991103202     -11.5584122
7.222                0.991060668     -11.5803938
7.224                0.991018091     -11.6023707
7.226                0.990972943     -11.6239806
7.228                0.990927622     -11.6455917
7.23                 0.990882128     -11.6672041
7.232                 0.99083646     -11.6888177
7.234                0.990789845     -11.7100499
7.236                0.990742958     -11.7312759
7.238                0.990695797     -11.7524958
7.24                 0.990648365     -11.7737097
7.242                0.990600939     -11.7945641
7.244                0.990553534     -11.8154047
7.246                0.990506148     -11.8362313
7.248                 0.99045878      -11.857044
7.25                 0.990412133     -11.8775041
7.252                0.990365574     -11.8979588
7.254                0.990319101     -11.9184079
7.256                0.990272715     -11.9388514
7.258                 0.99022879     -11.9589354
7.26                 0.990184544     -11.9790222
7.262                0.990139978     -11.9991115
7.264                0.990095093     -12.0192036
7.266                0.990054745     -12.0389584
7.268                0.990013947     -12.0587106
7.27                   0.9899727       -12.07846
7.272                0.989931006     -12.0982065
7.274                0.989894733      -12.117673
7.276                0.989858273     -12.1371352
7.278                0.989821628     -12.1565934
7.28                 0.989784798     -12.1760474
7.282                0.989753929     -12.1952699
7.284                0.989722933     -12.2144936
7.286                0.989691807     -12.2337188
7.288                0.989660551     -12.2529454
7.29                 0.989635983     -12.2720031
7.292                0.989611235     -12.2910576
7.294                0.989586308      -12.310109
7.296                0.989561202     -12.3291573
7.298                0.989542996     -12.3481276
7.3                  0.989524879     -12.3670854
7.302                0.989506849     -12.3860308
7.304                0.989488907     -12.4049637
7.306                0.989477509     -12.4239004
7.308                0.989466367     -12.4428294
7.31                 0.989455478     -12.4617505
7.312                0.989444844     -12.4806638
7.314                0.989441241     -12.4996238
7.316                0.989437519     -12.5185858
7.318                0.989433677     -12.5375497
7.32                 0.989429717     -12.5565155
7.322                0.989433677     -12.5755962
7.324                0.989437244     -12.5946751
7.326                0.989440419     -12.6137521
7.328                0.989443202      -12.632827
7.33                 0.989453756      -12.652098
7.332                0.989464155     -12.6713623
7.334                  0.9894744     -12.6906202
7.336                0.989484493     -12.7098716
7.338                0.989501278      -12.729387
7.34                 0.989518114     -12.7489011
7.342                0.989535001     -12.7684139
7.344                0.989551938     -12.7879256
7.346                0.989574704     -12.8077566
7.348                0.989597505     -12.8275864
7.35                 0.989620341     -12.8474151
7.352                0.989643212     -12.8672428
7.354                0.989670835     -12.8874597
7.356                0.989698665     -12.9076672
7.358                  0.9897267     -12.9278655
7.36                 0.989754941     -12.9480545
7.362                0.989786426     -12.9686929
7.364                0.989818309     -12.9893225
7.366                 0.98985059     -13.0099432
7.368                0.989883265      -13.030555
7.37                 0.989918298     -13.0516343
7.372                0.989953423      -13.072713
7.374                 0.98998864     -13.0937912
7.376                0.990023949     -13.1148689
7.378                 0.99006153     -13.1364292
7.38                 0.990098822     -13.1579866
7.382                0.990135825     -13.1795409
7.384                 0.99017254     -13.2010922
7.386                0.990210771     -13.2231504
7.388                0.990248855     -13.2451987
7.39                 0.990286795     -13.2672371
7.392                0.990324592     -13.2892657
7.394                0.990362178     -13.3118118
7.396                0.990399895     -13.3343521
7.398                0.990437745     -13.3568867
7.4                  0.990475727     -13.3794156
7.402                0.990511971     -13.4024421
7.404                0.990548358      -13.425467
7.406                0.990584886     -13.4484902
7.408                0.990621557     -13.4715117
7.41                 0.990655315      -13.495019
7.412                0.990689282     -13.5185187
7.414                0.990723458     -13.5420109
7.416                0.990757841     -13.5654954
7.418                0.990787859     -13.5894547
7.42                 0.990818289     -13.6134037
7.422                0.990849127     -13.6373425
7.424                0.990880372      -13.661271
7.426                0.990906304     -13.6856297
7.428                0.990932465     -13.7099856
7.43                 0.990958855     -13.7343388
7.432                0.990985473     -13.7586892
7.434                 0.99100687     -13.7834137
7.436                0.991028055     -13.8081369
7.438                0.991049029     -13.8328589
7.44                 0.991069793     -13.8575795
7.442                0.991085384     -13.8826295
7.444                0.991100744     -13.9076719
7.446                0.991115875     -13.9327067
7.448                 0.99113078     -13.9577339
7.45                 0.991139674     -13.9830405
7.452                  0.9911486     -14.0083415
7.454                0.991157559      -14.033637
7.456                0.991166551      -14.058927
7.458                0.991168753      -14.084427
7.46                 0.991171024     -14.1099268
7.462                0.991173367     -14.1354264
7.464                0.991175781     -14.1609258
7.466                0.991171236     -14.1865772
7.468                0.991166761     -14.2122236
7.47                 0.991162357     -14.2378651
7.472                0.991158023     -14.2635018
7.474                0.991146413     -14.2892444
7.476                0.991135083     -14.3149764
7.478                0.991124031     -14.3406977
7.48                 0.991113256     -14.3664084
7.482                0.991095119     -14.3921656
7.484                 0.99107722     -14.4179186
7.486                 0.99105956     -14.4436675
7.488                0.991042138     -14.4694121
7.49                 0.991018459     -14.4951258
7.492                0.990994553     -14.5208421
7.494                0.990970422     -14.5465611
7.496                0.990946064     -14.5722828
7.498                0.990917014     -14.5979126
7.5                  0.990887517     -14.6235415
7.502                0.990857574     -14.6491696
7.504                0.990827186     -14.6747968
7.506                0.990792813     -14.7002926
7.508                0.990758187     -14.7257867
7.51                 0.990723309     -14.7512791
7.512                 0.99068818       -14.77677
7.514                0.990649455     -14.8020852
7.516                0.990610591     -14.8274026
7.518                0.990571588     -14.8527222
7.52                 0.990532447      -14.878044
7.522                0.990490419     -14.9031602
7.524                0.990448282     -14.9282736
7.526                0.990406035     -14.9533844
7.528                0.990363679     -14.9784924
7.53                 0.990319005     -15.0033983
7.532                0.990274473     -15.0282921
7.534                0.990230081      -15.053174
7.536                0.990185827     -15.0780439
7.538                0.990139751     -15.1027061
7.54                 0.990093927       -15.12736
7.542                0.990048353     -15.1520054
7.544                0.990003028     -15.1766425
7.546                0.989957398     -15.2010523
7.548                0.989911579     -15.2254645
7.55                 0.989865569     -15.2498792
7.552                 0.98981937     -15.2742962
7.554                0.989775148     -15.2984756
7.556                0.989730333     -15.3226575
7.558                0.989684925      -15.346842
7.56                 0.989638925      -15.371029
7.562                0.989596333     -15.3949999
7.564                0.989553272     -15.4189705
7.566                0.989509741     -15.4429407
7.568                0.989465742     -15.4669103
7.57                 0.989425567     -15.4906905
7.572                0.989385173     -15.5144726
7.574                0.989344558     -15.5382569
7.576                0.989303725     -15.5620432
7.578                0.989266991     -15.5856788
7.58                  0.98923019     -15.6093132
7.582                0.989193321     -15.6329462
7.584                0.989156385      -15.656578
7.586                0.989123624     -15.6801248
7.588                0.989091101       -15.70366
7.59                 0.989058814     -15.7271835
7.592                0.989026764     -15.7506954
7.594                0.988998726     -15.7741908
7.596                0.988971151     -15.7976746
7.598                0.988944037     -15.8211468
7.6                  0.988917383     -15.8446073
7.602                0.988895431     -15.8680913
7.604                0.988873539     -15.8915753
7.606                0.988851707     -15.9150593
7.608                0.988829935     -15.9385434
7.61                 0.988814603     -15.9620874
7.612                 0.98879875     -15.9856345
7.614                0.988782376     -16.0091845
7.616                0.988765482     -16.0327374
7.618                0.988755962     -16.0564164
7.62                 0.988745926     -16.0800939
7.622                0.988735372     -16.1037696
7.624                0.988724301     -16.1274435
7.626                0.988720017      -16.151307
7.628                0.988715575     -16.1751704
7.63                 0.988710975     -16.1990338
7.632                0.988706218     -16.2228971
7.634                0.988707094     -16.2470024
7.636                0.988708092      -16.271108
7.638                0.988709213     -16.2952139
7.64                 0.988710457     -16.3193201
7.642                0.988716045     -16.3437373
7.644                0.988722075     -16.3681466
7.646                0.988728545     -16.3925479
7.648                0.988735455     -16.4169412
7.65                 0.988745366     -16.4417155
7.652                0.988755991     -16.4664785
7.654                0.988767328       -16.49123
7.656                0.988779377       -16.51597
7.658                0.988793855     -16.5411336
7.66                 0.988808699     -16.5662952
7.662                 0.98882391     -16.5914547
7.664                0.988839487     -16.6166121
7.666                0.988858335     -16.6422083
7.668                0.988876809      -16.667807
7.67                 0.988894907     -16.6934079
7.672                0.988912631      -16.719011
7.674                0.988934159     -16.7450852
7.676                0.988955113      -16.771156
7.678                0.988975494     -16.7972231
7.68                 0.988995304     -16.8232863
7.682                0.989017719     -16.8498503
7.684                0.989039937     -16.8764107
7.686                0.989061958     -16.9029675
7.688                0.989083784     -16.9295208
7.69                 0.989106147     -16.9565818
7.692                0.989128698     -16.9836427
7.694                0.989151437     -17.0107033
7.696                0.989174364     -17.0377638
7.698                0.989195804     -17.0653389
7.7                   0.98921776     -17.0929082
7.702                0.989240233     -17.1204717
7.704                0.989263221     -17.1480294
7.706                0.989282902     -17.1761147
7.708                0.989303419      -17.204188
7.71                  0.98932477      -17.232249
7.712                0.989346953     -17.2602977
7.714                0.989364734     -17.2888643
7.716                0.989383129     -17.3174254
7.718                0.989402137     -17.3459807
7.72                 0.989421756     -17.3745302
7.722                0.989437746     -17.4035541
7.724                0.989453497     -17.4325803
7.726                0.989469011     -17.4616086
7.728                0.989484287      -17.490639
7.73                 0.989497132     -17.5201151
7.732                0.989509235     -17.5495902
7.734                0.989520596      -17.579064
7.736                0.989531218     -17.6085361
7.738                0.989539057     -17.6384205
7.74                 0.989546404     -17.6683022
7.742                0.989553262     -17.6981811
7.744                 0.98955963      -17.728057
7.746                0.989561562     -17.7583001
7.748                 0.98956347     -17.7885436
7.75                 0.989565353     -17.8187873
7.752                0.989567211     -17.8490315
7.754                0.989562916     -17.8795956
7.756                0.989559016     -17.9101545
7.758                0.989555513      -17.940708
7.76                 0.989552405     -17.9712563
7.762                0.989541604     -18.0021024
7.764                0.989531646     -18.0329326
7.766                0.989522531     -18.0637467
7.768                0.989514256     -18.0945444
7.77                 0.989497556     -18.1255997
7.772                0.989481689     -18.1566421
7.774                0.989466652     -18.1876712
7.776                0.989452446     -18.2186868
7.778                0.989431256     -18.2498886
7.78                  0.98940997     -18.2810916
7.782                0.989388586     -18.3122958
7.784                0.989367105     -18.3435011
7.786                0.989341621     -18.3748137
7.788                0.989315084     -18.4061329
7.79                 0.989287494     -18.4374583
7.792                0.989258849     -18.4687896
7.794                0.989228027     -18.5001717
7.796                0.989196077     -18.5315595
7.798                0.989162999     -18.5629527
7.8                   0.98912879     -18.5943507
7.802                0.989092177     -18.6257609
7.804                0.989054971     -18.6571761
7.806                0.989017172     -18.6885963
7.808                0.988978778     -18.7200212
7.81                 0.988936643     -18.7514335
7.812                 0.98889466     -18.7828405
7.814                 0.98885283     -18.8142422
7.816                0.988811151     -18.8456386
7.818                0.988764054     -18.8770294
7.82                 0.988717964     -18.9083974
7.822                 0.98867288     -18.9397419
7.824                0.988628798     -18.9710625
7.826                0.988578363     -19.0023863
7.828                0.988529272     -19.0336839
7.83                 0.988481522     -19.0649545
7.832                0.988435111     -19.0961972
7.834                0.988384272     -19.1274025
7.836                0.988333733     -19.1586008
7.838                0.988283493     -19.1897919
7.84                 0.988233554     -19.2209757
7.842                  0.9881841     -19.2520632
7.844                0.988133292      -19.283164
7.846                0.988081125     -19.3142776
7.848                0.988027596     -19.3454035
7.85                 0.987979063     -19.3763913
7.852                0.987928409      -19.407401
7.854                0.987875628     -19.4384312
7.856                 0.98782071     -19.4694806
7.858                0.987772143     -19.5003884
7.86                 0.987721923     -19.5313136
7.862                0.987670043     -19.5622555
7.864                0.987616501     -19.5932133
7.866                0.987567105     -19.6240866
7.868                0.987517606     -19.6549569
7.87                 0.987468005     -19.6858241
7.872                0.987418302     -19.7166883
7.874                0.987367932      -19.747555
7.876                0.987319712     -19.7783953
7.878                 0.98727364     -19.8092074
7.88                 0.987229716     -19.8399898
7.882                0.987180663     -19.8708582
7.884                0.987135005     -19.9016957
7.886                0.987092741     -19.9324984
7.888                0.987053866     -19.9632626
7.89                 0.987011111     -19.9941456
7.892                0.986970151     -20.0250115
7.894                0.986930987     -20.0558592
7.896                0.986893621     -20.0866878
7.898                0.986859989     -20.1176102
7.9                  0.986825008     -20.1485478
7.902                0.986788673     -20.1794999
7.904                0.986750981     -20.2104659
7.906                0.986726498      -20.241443
7.908                0.986697753     -20.2724987
7.91                 0.986664703     -20.3036274
7.912                0.986627305     -20.3348232
7.914                0.986610318     -20.3659709
7.916                0.986587342     -20.3972196
7.918                0.986558313     -20.4285591
7.92                 0.986523176     -20.4599796
7.922                0.986506762     -20.4914849
7.924                0.986487247     -20.5230158
7.926                0.986464619     -20.5545705
7.928                0.986438868     -20.5861472
7.93                 0.986396802     -20.6180298
7.932                0.986371983     -20.6499225
7.934                 0.98636441     -20.6817755
7.936                0.986374038     -20.7135399
7.938                 0.98622648     -20.7448437
7.94                 0.986169769      -20.777458
7.942                0.986204431     -20.8103082
7.944                0.986328208     -20.8423563
7.946                0.986259963     -20.8623419
7.948                0.986200532     -20.8910817
7.95                 0.986198577     -20.9282583
7.952                0.986300149     -20.9728141
7.954                0.986196274     -21.0096135
7.956                 0.98617113     -21.0444622
7.958                0.986207943     -21.0765131
7.96                 0.986288062     -21.1051425
7.962                0.986261446     -21.1609825
7.964                0.986249577     -21.2019825
7.966                0.986257132     -21.2281907
7.968                0.986289438      -21.239506
7.97                 0.986263278     -21.2853579
7.972                0.986231448     -21.3230683
7.974                 0.98623189      -21.353054
7.976                0.986301211     -21.3760762
7.978                0.986289503     -21.4040557
7.98                 0.986297954       -21.43624
7.982                  0.9863132     -21.4730894
7.984                0.986319953     -21.5149459
7.986                0.986388655     -21.5431151
7.988                0.986425184     -21.5763737
7.99                 0.986414248     -21.6142639
7.992                0.986342244     -21.6562033
7.994                0.986403526     -21.6898844
7.996                0.986429335     -21.7252069
7.998                0.986417126     -21.7619452
8                    0.986364805     -21.7998671
8.002                0.986392473     -21.8360056
8.004                0.986405172     -21.8724259
8.006                0.986402704     -21.9090944
8.008                0.986384897     -21.9459777
8.01                 0.986385148     -21.9831494
8.012                0.986387545     -22.0203052
8.014                0.986392088     -22.0574444
8.016                0.986398777     -22.0945666
8.018                0.986385861      -22.132304
8.02                 0.986382263     -22.1700626
8.022                0.986388005     -22.2078282
8.024                0.986403101     -22.2455864
8.026                0.986392344     -22.2838698
8.028                0.986387267     -22.3222049
8.03                 0.986387906     -22.3605844
8.032                0.986394285     -22.3990009
8.034                0.986386744     -22.4379186
8.036                0.986380036     -22.4768358
8.038                0.986374165     -22.5157523
8.04                 0.986369133     -22.5546682
8.042                0.986360522     -22.5940666
8.044                0.986350313     -22.6335021
8.046                0.986338495     -22.6729742
8.048                0.986325054     -22.7124824
8.05                 0.986315254     -22.7522558
8.052                0.986301203     -22.7921493
8.054                0.986282846     -22.8321585
8.056                0.986260131     -22.8722791
8.058                 0.98624502     -22.9125579
8.06                 0.986225498     -22.9529167
8.062                 0.98620153     -22.9933518
8.064                0.986173084     -23.0338595
8.066                0.986146625     -23.0746731
8.068                0.986119486     -23.1154856
8.07                 0.986091662      -23.156297
8.072                 0.98606315     -23.1971072
8.074                0.986024942     -23.2383091
8.076                 0.98599003     -23.2794964
8.078                0.985958422      -23.320667
8.08                 0.985930126     -23.3618188
8.082                0.985885776     -23.4033248
8.084                0.985844913     -23.4448356
8.086                0.985807551     -23.4863483
8.088                0.985773704     -23.5278601
8.09                 0.985726988     -23.5696708
8.092                0.985681496      -23.611474
8.094                0.985637237     -23.6532694
8.096                0.985594214     -23.6950566
8.098                0.985544755     -23.7370986
8.1                  0.985494705      -23.779138
8.102                0.985444064     -23.8211748
8.104                0.985392828     -23.8632091
8.106                0.985341026     -23.9053772
8.108                0.985286842     -23.9475933
8.11                 0.985230258     -23.9898566
8.112                0.985171255     -24.0321661
8.114                0.985116528     -24.0744881
8.116                 0.98505844     -24.1168664
8.118                0.984996963     -24.1592992
8.12                 0.984932074     -24.2017847
8.122                0.984871176     -24.2443166
8.124                0.984808587     -24.2868551
8.126                0.984744297     -24.3294002
8.128                0.984678302     -24.3719515
8.13                 0.984609712     -24.4146618
8.132                0.984542632     -24.4573478
8.134                0.984477069     -24.5000092
8.136                0.984413027     -24.5426454
8.138                0.984340267     -24.5854636
8.14                  0.98427041     -24.6282646
8.142                0.984203469     -24.6710467
8.144                0.984139455     -24.7138082
8.146                  0.9840672     -24.7567431
8.148                0.983996617      -24.799661
8.15                 0.983927715      -24.842561
8.152                0.983860501     -24.8854427
8.154                0.983790265      -24.928505
8.156                0.983719942     -24.9715497
8.158                0.983649534     -25.0145769
8.16                 0.983579042     -25.0575867
8.162                0.983511572     -25.1007231
8.164                0.983442369     -25.1438764
8.166                0.983371422     -25.1870463
8.168                0.983298719     -25.2302323
8.17                 0.983234219     -25.2734869
8.172                0.983166763     -25.3167816
8.174                0.983096328      -25.360115
8.176                0.983022896     -25.4034859
8.178                0.982959198     -25.4469559
8.18                 0.982893378     -25.4904356
8.182                0.982825424     -25.5339245
8.184                0.982755325     -25.5774223
8.186                0.982689967     -25.6211679
8.188                0.982625437     -25.6648871
8.19                 0.982561737     -25.7085799
8.192                0.982498872     -25.7522463
8.194                0.982433522     -25.7962709
8.196                 0.98237128     -25.8402688
8.198                0.982312162     -25.8842385
8.2                  0.982256177     -25.9281786