! TOUCHSTONE file generated by CST DESIGN STUDIO
! Date and time: Mon Feb 10 16:41:39 2025
! Project name: C:\Work\MatlabApps\UnitCellType2OptimizationMatlab\CST\unitcell.cst
! Tree item: Tasks\Sweep1\SPara1\S-Parameters
! Header version: 2024
! Port assignment regex: !\s*Touchstone port\s*([0-9]+)\s*=\s*(CST MWS port|CST DES external port|CST DES block port)\s*(.+)\s* \(\"(.*)\"\)(\s*mode\s*([0-9]+))?.*
! Touchstone port assignment:
! Touchstone port 1 = CST DES external port 1 ("")
# GHz S MA R 50
7                    0.987151558     -8.02336007
7.002                0.987163671     -8.04095052
7.004                0.987175079      -8.0585156
7.006                0.987185786     -8.07605568
7.008                0.987195796     -8.09357116
7.01                 0.987217477     -8.11121391
7.012                0.987239229     -8.12881365
7.014                0.987261051     -8.14637071
7.016                0.987282942     -8.16388546
7.018                0.987314515     -8.18162484
7.02                 0.987346373       -8.199342
7.022                0.987378515      -8.2170371
7.024                0.987410939      -8.2347103
7.026                0.987453342      -8.2526543
7.028                 0.98749516     -8.27058919
7.03                 0.987536396      -8.2885149
7.032                0.987577054     -8.30643139
7.034                0.987628258     -8.32471824
7.036                0.987678796     -8.34297443
7.038                0.987728676     -8.36120004
7.04                 0.987777906     -8.37939514
7.042                0.987835623      -8.3980812
7.044                0.987893415     -8.41673311
7.046                0.987951286     -8.43535132
7.048                0.988009238     -8.45393635
7.05                 0.988073309     -8.47306002
7.052                0.988137427     -8.49216858
7.054                0.988201592     -8.51126217
7.056                0.988265803     -8.53034093
7.058                0.988335129      -8.5500028
7.06                 0.988404123     -8.56964425
7.062                0.988472787     -8.58926546
7.064                0.988541125     -8.60886671
7.066                0.988612761     -8.62911815
7.068                0.988684513     -8.64933124
7.07                  0.98875638     -8.66950633
7.072                0.988828359     -8.68964376
7.074                0.988900649     -8.71046023
7.076                0.988973401     -8.73124801
7.078                 0.98904661     -8.75200728
7.08                 0.989120275     -8.77273823
7.082                0.989193109     -8.79410972
7.084                0.989265713     -8.81546594
7.086                0.989338089     -8.83680697
7.088                0.989410239     -8.85813294
7.09                 0.989481546     -8.88008543
7.092                0.989552294     -8.90200552
7.094                 0.98962249     -8.92389328
7.096                0.989692139     -8.94574881
7.098                0.989759045     -8.96824747
7.1                  0.989826053     -8.99070381
7.102                0.989893167     -9.01311824
7.104                0.989960388     -9.03549121
7.106                0.990022208     -9.05845785
7.108                 0.99008437     -9.08140046
7.11                  0.99014687     -9.10431925
7.112                0.990209709     -9.12721446
7.114                0.990266102     -9.15062474
7.116                0.990322429     -9.17401689
7.118                0.990378694     -9.19739108
7.12                 0.990434896     -9.22074747
7.122                0.990483861     -9.24457432
7.124                0.990532899     -9.26836889
7.126                0.990582009     -9.29213151
7.128                0.990631188     -9.31586253
7.13                 0.990671276     -9.34000728
7.132                0.990711866     -9.36412231
7.134                0.990752952     -9.38820772
7.136                0.990794532     -9.41226365
7.138                0.990826263      -9.4366274
7.14                 0.990858083     -9.46097719
7.142                0.990889993     -9.48531305
7.144                0.990921994     -9.50963508
7.146                0.990945092     -9.53416086
7.148                0.990967773      -9.5586657
7.15                 0.990990042     -9.58314962
7.152                0.991011902     -9.60761268
7.154                0.991024866     -9.63222592
7.156                0.991037808     -9.65680647
7.158                0.991050732     -9.68135461
7.16                 0.991063639     -9.70587062
7.162                0.991066701     -9.73044757
7.164                0.991070075     -9.75500507
7.166                0.991073759     -9.77954333
7.168                0.991077753     -9.80406255
7.17                 0.991072208     -9.82853507
7.172                0.991066606     -9.85299852
7.174                 0.99106095     -9.87745297
7.176                0.991055238     -9.90189848
7.178                0.991041109     -9.92622209
7.18                 0.991026836      -9.9505245
7.182                0.991012421     -9.97480599
7.184                0.990997864     -9.99906682
7.186                0.990974917     -10.0231585
7.188                0.990952274     -10.0472248
7.19                 0.990929932     -10.0712659
7.192                0.990907888     -10.0952817
7.194                0.990877876     -10.1190395
7.196                0.990848024     -10.1427885
7.198                0.990818329     -10.1665285
7.2                  0.990788792     -10.1902597
7.202                0.990753517     -10.2136379
7.204                0.990717781     -10.2370112
7.206                0.990681585     -10.2603796
7.208                0.990644932     -10.2837432
7.21                 0.990604652     -10.3067195
7.212                0.990563977     -10.3296799
7.214                 0.99052291     -10.3526246
7.216                0.990481453     -10.3755535
7.218                 0.99043715     -10.3980691
7.22                 0.990392814     -10.4205738
7.222                0.990348444      -10.443068
7.224                0.990304041     -10.4655518
7.226                0.990258026     -10.4875883
7.228                0.990211782     -10.5096233
7.23                 0.990165308     -10.5316569
7.232                0.990118606     -10.5536891
7.234                0.990072234      -10.575273
7.236                0.990025491      -10.596844
7.238                0.989978379     -10.6184024
7.24                 0.989930898     -10.6399483
7.242                0.989884631      -10.661091
7.244                0.989838448     -10.6822099
7.246                0.989792346     -10.7033051
7.248                0.989746323     -10.7243768
7.25                 0.989702016     -10.7450628
7.252                0.989657888     -10.7657381
7.254                 0.98961394     -10.7864028
7.256                0.989570168     -10.8070569
7.258                0.989530169     -10.8273194
7.26                 0.989489725     -10.8475829
7.262                0.989448837     -10.8678474
7.264                0.989407507     -10.8881128
7.266                0.989372458     -10.9080219
7.268                0.989336768     -10.9279237
7.27                 0.989300441     -10.9478179
7.272                0.989263479     -10.9677046
7.274                0.989233552     -10.9873094
7.276                0.989203379     -11.0069052
7.278                0.989172962     -11.0264922
7.28                 0.989142303     -11.0460705
7.282                0.989118936     -11.0654246
7.284                  0.9890954     -11.0847783
7.286                0.989071695     -11.1041315
7.288                0.989047821     -11.1234843
7.29                 0.989031872     -11.1426869
7.292                0.989015675     -11.1618821
7.294                0.988999229     -11.1810698
7.296                0.988982536     -11.2002503
7.298                0.988973682     -11.2193922
7.3                   0.98896498     -11.2385132
7.302                 0.98895643     -11.2576134
7.304                 0.98894803     -11.2766929
7.306                 0.98894663     -11.2958261
7.308                 0.98894562     -11.3149459
7.31                 0.988944999     -11.3340521
7.312                0.988944765     -11.3531448
7.314                0.988952026     -11.3723317
7.316                0.988959103     -11.3915186
7.318                0.988965994     -11.4107055
7.32                 0.988972702     -11.4298924
7.322                0.988988099     -11.4492434
7.324                0.989002898     -11.4685881
7.326                0.989017102     -11.4879262
7.328                0.989030714     -11.5072576
7.33                   0.9890527     -11.5268435
7.332                0.989074441     -11.5464165
7.334                0.989095939     -11.5659766
7.336                0.989117198     -11.5855239
7.338                0.989145249     -11.6053918
7.34                 0.989173351      -11.625255
7.342                0.989201505     -11.6451136
7.344                 0.98922971     -11.6649676
7.346                0.989263537     -11.6851924
7.348                0.989297387     -11.7054126
7.35                  0.98933126     -11.7256283
7.352                0.989365156     -11.7458394
7.354                0.989403301     -11.7664932
7.356                0.989441726     -11.7871307
7.358                0.989480428      -11.807752
7.36                 0.989519406      -11.828357
7.362                0.989560692     -11.8494641
7.364                0.989602535     -11.8705561
7.366                0.989644935     -11.8916328
7.368                0.989687888     -11.9126945
7.37                 0.989732203     -11.9342635
7.372                0.989776615      -11.955829
7.374                0.989821124      -11.977391
7.376                0.989865728     -11.9989494
7.378                0.989911986     -12.0210201
7.38                 0.989957777     -12.0430827
7.382                0.990003102     -12.0651373
7.384                0.990047964     -12.0871836
7.386                0.990093785     -12.1097646
7.388                0.990139354     -12.1323277
7.39                 0.990184674     -12.1548731
7.392                0.990229749     -12.1774008
7.394                0.990273695     -12.2004638
7.396                0.990317794     -12.2235157
7.398                0.990362048     -12.2465568
7.4                  0.990406456     -12.2695872
7.402                0.990447981     -12.2931157
7.404                0.990489671     -12.3166395
7.406                0.990531526     -12.3401585
7.408                0.990573546     -12.3636726
7.41                 0.990611445     -12.3876641
7.412                0.990649613     -12.4116423
7.414                0.990688047     -12.4356074
7.416                0.990726747     -12.4595594
7.418                0.990759692     -12.4839724
7.42                 0.990793203      -12.508369
7.422                0.990827276     -12.5327492
7.424                0.990861909     -12.5571129
7.426                0.990889869     -12.5818799
7.428                0.990918124      -12.606641
7.43                 0.990946674     -12.6313963
7.432                0.990975517     -12.6561458
7.434                0.990998275      -12.681229
7.436                0.991020686     -12.7063076
7.438                0.991042753     -12.7313816
7.44                 0.991064477      -12.756451
7.442                0.991080553     -12.7818058
7.444                0.991096264     -12.8071468
7.446                0.991111614     -12.8324742
7.448                0.991126606     -12.8577879
7.45                 0.991135041     -12.8833311
7.452                0.991143498     -12.9088642
7.454                0.991151977     -12.9343874
7.456                 0.99116048     -12.9599008
7.458                0.991161565     -12.9855618
7.46                 0.991162729     -13.0112208
7.462                0.991163973     -13.0368778
7.464                0.991165297     -13.0625327
7.466                0.991159144     -13.0882723
7.468                0.991153081      -13.114003
7.47                 0.991147106     -13.1397249
7.472                 0.99114122     -13.1654382
7.474                0.991127517     -13.1911924
7.476                0.991114219     -13.2169301
7.478                0.991101323     -13.2426513
7.48                 0.991088826      -13.268356
7.482                0.991068457     -13.2940394
7.484                0.991048436     -13.3197157
7.486                0.991028761     -13.3453849
7.488                0.991009432      -13.371047
7.49                 0.990983825     -13.3966022
7.492                0.990957895     -13.4221594
7.494                0.990931643     -13.4477183
7.496                0.990905068      -13.473279
7.498                0.990874384     -13.4986732
7.5                  0.990843069     -13.5240637
7.502                0.990811124     -13.5494505
7.504                 0.99077855     -13.5748336
7.506                0.990742714     -13.6000154
7.508                0.990706536     -13.6251929
7.51                 0.990670017     -13.6503662
7.512                0.990633157     -13.6755354
7.514                0.990593358     -13.7004597
7.516                0.990553385     -13.7253859
7.518                0.990513238     -13.7503138
7.52                 0.990472918     -13.7752435
7.522                0.990430386     -13.7999036
7.524                0.990387731     -13.8245584
7.526                0.990344955     -13.8492083
7.528                0.990302055     -13.8738531
7.53                 0.990257417     -13.8982463
7.532                0.990213028     -13.9226219
7.534                0.990168886     -13.9469799
7.536                 0.99012499     -13.9713203
7.538                0.990079692     -13.9954135
7.54                 0.990034802     -14.0194949
7.542                0.989990316     -14.0435642
7.544                0.989946235     -14.0676215
7.546                0.989902559     -14.0914118
7.548                 0.98985865     -14.1152046
7.55                 0.989814507     -14.1389999
7.552                 0.98977013     -14.1627978
7.554                0.989729044      -14.186323
7.556                0.989687145     -14.2098502
7.558                0.989644434     -14.2333792
7.56                 0.989600913     -14.2569097
7.562                0.989562305     -14.2802011
7.564                0.989523063     -14.3034904
7.566                0.989483187     -14.3267777
7.568                0.989442679     -14.3500628
7.57                 0.989407253     -14.3731429
7.572                0.989371545     -14.3962251
7.574                0.989335556     -14.4193096
7.576                0.989299285     -14.4423962
7.578                0.989268086     -14.4653242
7.58                 0.989236821     -14.4882501
7.582                0.989205488     -14.5111737
7.584                0.989174089     -14.5340952
7.586                0.989147482     -14.5569388
7.588                0.989121247     -14.5797662
7.59                 0.989095381     -14.6025775
7.592                0.989069884     -14.6253726
7.594                0.989048601     -14.6481704
7.596                0.989028003     -14.6709527
7.598                0.989008087     -14.6937195
7.6                  0.988988852     -14.7164706
7.602                 0.98897456     -14.7392645
7.604                0.988960365     -14.7620582
7.606                0.988946265     -14.7848518
7.608                0.988932262     -14.8076454
7.61                 0.988925469     -14.8305182
7.612                0.988917938     -14.8533937
7.614                0.988909669     -14.8762715
7.616                0.988900663     -14.8991515
7.618                0.988900044     -14.9221843
7.62                  0.98889869     -14.9452129
7.622                0.988896601     -14.9682372
7.624                 0.98889378     -14.9912571
7.626                0.988898398     -15.0144962
7.628                0.988902783     -15.0377342
7.63                 0.988906936     -15.0609712
7.632                0.988910856      -15.084207
7.634                0.988920533     -15.1077113
7.636                0.988930368     -15.1312157
7.638                0.988940361     -15.1547201
7.64                 0.988950513     -15.1782247
7.642                0.988964625     -15.2020687
7.644                0.988979346     -15.2259019
7.646                0.988994677     -15.2497241
7.648                0.989010614     -15.2735355
7.65                 0.989028672     -15.2977593
7.652                0.989047723     -15.3219682
7.654                0.989067763     -15.3461621
7.656                0.989088791     -15.3703407
7.658                0.989111303     -15.3949676
7.66                 0.989134305     -15.4195916
7.662                0.989157796     -15.4442129
7.664                0.989181776     -15.4688313
7.666                0.989208659     -15.4939046
7.668                0.989234981     -15.5189793
7.67                 0.989260741     -15.5440554
7.672                 0.98928594     -15.5691326
7.674                0.989315054     -15.5946961
7.676                0.989343329     -15.6202524
7.678                0.989370766     -15.6458011
7.68                 0.989397368      -15.671342
7.682                0.989426487     -15.6973951
7.684                0.989455295     -15.7234417
7.686                0.989483793      -15.749482
7.688                0.989511983     -15.7755159
7.69                 0.989540103     -15.8020558
7.692                 0.98956845     -15.8285952
7.694                0.989597024      -15.855134
7.696                0.989625823     -15.8816722
7.698                0.989652055     -15.9087141
7.7                  0.989678979     -15.9357485
7.702                0.989706592     -15.9627754
7.704                0.989734895     -15.9897947
7.706                0.989758394     -16.0173268
7.708                0.989783036     -16.0448436
7.71                 0.989808817     -16.0723447
7.712                0.989835735     -16.0998299
7.714                0.989856709     -16.1278101
7.716                0.989878509     -16.1557835
7.718                0.989901134     -16.1837499
7.72                 0.989924581     -16.2117091
7.722                0.989943536     -16.2401074
7.724                0.989962122     -16.2685076
7.726                0.989980339     -16.2969096
7.728                0.989998188     -16.3253135
7.73                 0.990013586     -16.3541229
7.732                0.990027917     -16.3829286
7.734                0.990041183       -16.41173
7.736                0.990053386     -16.4405268
7.738                0.990062979     -16.4696928
7.74                  0.99007186     -16.4988535
7.742                0.990080033     -16.5280086
7.744                0.990087498     -16.5571581
7.746                0.990090339     -16.5866209
7.748                0.990093122      -16.616084
7.75                 0.990095847     -16.6455472
7.752                0.990098514     -16.6750108
7.754                0.990094389     -16.7047325
7.756                0.990090803     -16.7344479
7.758                0.990087753     -16.7641569
7.76                  0.99008524     -16.7938595
7.762                0.990073963     -16.8237991
7.764                 0.99006386      -16.853719
7.766                0.990054929     -16.8836187
7.768                0.990047167     -16.9134978
7.77                 0.990029756     -16.9435729
7.772                0.990013506     -16.9736325
7.774                0.989998415     -17.0036761
7.776                0.989984482     -17.0337033
7.778                0.989963022      -17.063846
7.78                 0.989941429     -17.0939905
7.782                0.989919701     -17.1241367
7.784                0.989897839     -17.1542848
7.786                0.989872656     -17.1844638
7.788                0.989846017     -17.2146497
7.79                 0.989817921     -17.2448422
7.792                0.989788368     -17.2750406
7.794                0.989758029     -17.3052157
7.796                0.989726138     -17.3353965
7.798                0.989692695     -17.3655826
7.8                  0.989657699     -17.3957734
7.802                0.989621523     -17.4259013
7.804                0.989584543     -17.4560357
7.806                 0.98954676     -17.4861763
7.808                0.989508172     -17.5163232
7.81                 0.989466416     -17.5463853
7.812                0.989424902     -17.5764419
7.814                0.989383629     -17.6064928
7.816                0.989342598     -17.6365381
7.818                0.989295865     -17.6665181
7.82                 0.989250573     -17.6964706
7.822                 0.98920672      -17.726395
7.824                0.989164301     -17.7562906
7.826                0.989114636     -17.7861412
7.828                0.989066881      -17.815961
7.83                 0.989021034     -17.8457488
7.832                0.988977088     -17.8755035
7.834                0.988928321     -17.9051716
7.836                 0.98888001     -17.9348327
7.838                0.988832155     -17.9644867
7.84                 0.988784756     -17.9941334
7.842                0.988739088      -18.023628
7.844                0.988691582     -18.0531395
7.846                0.988642235      -18.082667
7.848                0.988591041     -18.1122099
7.85                 0.988547526     -18.1415599
7.852                0.988501114     -18.1709366
7.854                0.988451797     -18.2003381
7.856                0.988399567     -18.2297626
7.858                0.988356556     -18.2589962
7.86                 0.988311294     -18.2882518
7.862                0.988263776     -18.3175283
7.864                0.988213997     -18.3468246
7.866                0.988170063     -18.3759989
7.868                0.988126023     -18.4051713
7.87                 0.988081878     -18.4343419
7.872                0.988037628     -18.4635105
7.874                0.987992219     -18.4926594
7.876                 0.98794981     -18.5217804
7.878                0.987910397     -18.5508713
7.88                 0.987873979     -18.5799299
7.882                0.987829937     -18.6090612
7.884                0.987790597      -18.638162
7.886                0.987755955     -18.6672271
7.888                0.987726007     -18.6962513
7.89                 0.987689861     -18.7253838
7.892                0.987656203     -18.7545003
7.894                0.987625035     -18.7835996
7.896                0.987596358     -18.8126803
7.898                0.987571727     -18.8418413
7.9                   0.98754525     -18.8710219
7.902                0.987516923     -18.9002214
7.904                0.987486742     -18.9294389
7.906                0.987473455     -18.9586323
7.908                0.987454287      -18.987924
7.91                 0.987429187     -19.0173062
7.912                0.987398108     -19.0467708
7.914                0.987393689     -19.0761335
7.916                0.987381012     -19.1056203
7.918                0.987360008      -19.135217
7.92                 0.987330613     -19.1649099
7.922                0.987325359       -19.19466
7.924                0.987315848     -19.2244392
7.926                0.987302069     -19.2542449
7.928                0.987284013     -19.2840746
7.93                 0.987242172     -19.3141488
7.932                0.987223795      -19.344286
7.934                0.987228906     -19.3744187
7.936                0.987257464       -19.40448
7.938                0.987071283      -19.433345
7.94                  0.98700763     -19.4642396
7.942                0.987067991     -19.4957025
7.944                0.987250024     -19.5263199
7.946                0.987179524      -19.539878
7.948                0.987113933     -19.5653503
7.95                 0.987119664     -19.6024347
7.952                0.987259997     -19.6498057
7.954                0.987126507     -19.6859056
7.956                0.987101435     -19.7195743
7.958                0.987162601     -19.7496204
7.96                 0.987285176     -19.7751522
7.962                0.987240257     -19.8370346
7.964                0.987227225     -19.8788541
7.966                0.987252229     -19.9007205
7.968                0.987322648     -19.9025102
7.97                 0.987285502     -19.9506463
7.972                 0.98724721     -19.9877509
7.974                0.987258714     -20.0145019
7.976                 0.98736895     -20.0320297
7.978                0.987365085     -20.0558126
7.98                 0.987385088     -20.0853383
7.982                0.987410492     -20.1211904
7.984                0.987420343     -20.1637826
7.986                0.987524675     -20.1878129
7.988                0.987581371     -20.2186337
7.99                 0.987570138     -20.2555809
7.992                0.987473177     -20.2978261
7.994                0.987562883     -20.3290382
7.996                0.987603345     -20.3623743
7.998                0.987591311     -20.3975253
8                    0.987524035      -20.434174
8.002                0.987566254     -20.4683629
8.004                0.987588074      -20.502886
8.006                0.987589318      -20.537707
8.008                0.987569685     -20.5727824
8.01                 0.987574707       -20.60803
8.012                0.987582592     -20.6432649
8.014                0.987593339     -20.6784862
8.016                 0.98760695     -20.7136934
8.018                0.987594518     -20.7494091
8.02                 0.987594586     -20.7851817
8.022                0.987607184     -20.8209919
8.024                0.987632336     -20.8568203
8.026                 0.98762346     -20.8930174
8.028                0.987622152     -20.9293027
8.03                 0.987628462     -20.9656663
8.032                0.987642426     -21.0020985
8.034                0.987638729     -21.0389065
8.036                0.987636124     -21.0757199
8.038                0.987634612     -21.1125384
8.04                 0.987634196     -21.1493619
8.042                0.987630287     -21.1865668
8.044                0.987624175     -21.2238213
8.046                0.987615845     -21.2611246
8.048                0.987605283     -21.2984757
8.05                 0.987601284     -21.3359449
8.052                0.987591461      -21.373568
8.054                0.987575748     -21.4113389
8.056                0.987554085     -21.4492515
8.058                0.987544528     -21.4871613
8.06                 0.987528976     -21.5251711
8.062                0.987507389     -21.5632758
8.064                0.987479733     -21.6014702
8.066                0.987456663     -21.6398489
8.068                0.987432672     -21.6782293
8.07                 0.987407757     -21.7166114
8.072                0.987381914      -21.754995
8.074                0.987345021     -21.7936606
8.076                 0.98731255      -21.832321
8.078                 0.98728451     -21.8709734
8.08                 0.987260909     -21.9096149
8.082                0.987217896     -21.9484793
8.084                0.987179548     -21.9873653
8.086                0.987145882     -22.0262691
8.088                0.987116915     -22.0651869
8.09                 0.987072879      -22.104275
8.092                0.987030496     -22.1433627
8.094                0.986989776     -22.1824495
8.096                0.986950722     -22.2215349
8.098                0.986905184     -22.2607641
8.1                  0.986858876      -22.299995
8.102                0.986811797     -22.3392275
8.104                0.986763944     -22.3784618
8.106                 0.98671745     -22.4177053
8.108                0.986667762     -22.4570135
8.11                 0.986614859     -22.4963852
8.112                0.986558719     -22.5358189
8.114                0.986510338     -22.5751242
8.116                0.986457457     -22.6145029
8.118                0.986400048     -22.6539526
8.12                 0.986338081     -22.6934707
8.122                0.986283274     -22.7329137
8.124                0.986226238     -22.7723691
8.126                0.986166965     -22.8118367
8.128                0.986105448      -22.851316
8.13                 0.986042061      -22.890854
8.132                0.985980734     -22.9303725
8.134                0.985921473     -22.9698708
8.136                0.985864281     -23.0093484
8.138                0.985796857     -23.0489056
8.14                 0.985733335     -23.0884569
8.142                0.985673731     -23.1280001
8.144                0.985618057     -23.1675329
8.146                0.985552612     -23.2071375
8.148                 0.98548943     -23.2467334
8.15                 0.985428522     -23.2863199
8.152                0.985369895      -23.325896
8.154                0.985308216     -23.3655661
8.156                0.985246465     -23.4052225
8.158                0.985184642     -23.4448655
8.16                 0.985122748     -23.4844949
8.162                0.985065563     -23.5241671
8.164                0.985006092     -23.5638672
8.166                0.984944321     -23.6035946
8.168                 0.98488024     -23.6433487
8.17                 0.984827512      -23.683075
8.172                0.984770859     -23.7228568
8.174                0.984710255     -23.7626921
8.176                0.984645677     -23.8025791
8.178                0.984594146     -23.8424794
8.18                 0.984539813     -23.8823976
8.182                0.984482667     -23.9223331
8.184                0.984422693     -23.9622849
8.186                0.984368837      -24.002417
8.188                0.984316099     -24.0425277
8.19                 0.984264484     -24.0826171
8.192                0.984213996     -24.1226851
8.194                0.984159796     -24.1630427
8.196                0.984109717     -24.2033851
8.198                0.984063772     -24.2437102
8.2                  0.984021977     -24.2840165