! TOUCHSTONE file generated by CST DESIGN STUDIO
! Date and time: Mon Feb 10 16:41:42 2025
! Project name: C:\Work\MatlabApps\UnitCellType2OptimizationMatlab\CST\unitcell.cst
! Tree item: Tasks\Sweep1\SPara1\S-Parameters
! Header version: 2024
! Port assignment regex: !\s*Touchstone port\s*([0-9]+)\s*=\s*(CST MWS port|CST DES external port|CST DES block port)\s*(.+)\s* \(\"(.*)\"\)(\s*mode\s*([0-9]+))?.*
! Touchstone port assignment:
! Touchstone port 1 = CST DES external port 1 ("")
# GHz S MA R 50
7                    0.982652019     -4.65526826
7.002                0.982727058     -4.68099626
7.004                0.982800177     -4.70661762
7.006                0.982871398     -4.73213387
7.008                0.982940743     -4.75754658
7.01                 0.983024167     -4.78340648
7.012                0.983107552     -4.80912022
7.014                0.983190894     -4.83468955
7.016                0.983274193     -4.86011623
7.018                0.983366626     -4.88608524
7.02                 0.983459502      -4.9119592
7.022                0.983552816      -4.9377391
7.024                0.983646561     -4.96342594
7.026                0.983750279     -4.98963316
7.028                 0.98385237     -5.01577369
7.03                 0.983952849     -5.04184782
7.032                0.984051736     -5.06785589
7.034                0.984162275     -5.09449542
7.036                0.984271037     -5.12101788
7.038                0.984378049     -5.14742417
7.04                 0.984483338      -5.1737152
7.042                0.984596181     -5.20078768
7.044                0.984708995     -5.22773899
7.046                0.984821788     -5.25457095
7.048                0.984934564     -5.28128541
7.05                 0.985050516     -5.30877227
7.052                0.985166362     -5.33618358
7.054                0.985282103     -5.36352012
7.056                0.985397741     -5.39078268
7.058                0.985515797     -5.41881173
7.06                 0.985632897     -5.44675307
7.062                0.985749053      -5.4746077
7.064                0.985864275     -5.50237673
7.066                0.985979401     -5.53098955
7.068                0.986094633     -5.55947733
7.07                 0.986209966     -5.58784152
7.072                0.986325396     -5.61608361
7.074                0.986435854     -5.64516845
7.076                0.986547202     -5.67415389
7.078                0.986659429     -5.70304085
7.08                 0.986772525     -5.73183026
7.082                0.986879952     -5.76133804
7.084                0.986986704     -5.79077649
7.086                0.987092791     -5.82014616
7.088                0.987198218     -5.84944764
7.09                 0.987299779     -5.87942039
7.092                0.987399963     -5.90928637
7.094                0.987498789     -5.93904634
7.096                0.987596278     -5.96870103
7.098                0.987687429     -5.99905163
7.1                  0.987778699     -6.02927821
7.102                0.987870094     -6.05938229
7.104                0.987961618     -6.08936547
7.106                0.988042705     -6.11993612
7.108                0.988124423     -6.15042667
7.11                 0.988206767     -6.18083794
7.112                0.988289731     -6.21117081
7.114                0.988361795     -6.24193746
7.116                0.988433593     -6.27263766
7.118                0.988505129     -6.30327207
7.12                 0.988576406     -6.33384135
7.122                0.988636738     -6.36478519
7.124                0.988697125      -6.3956339
7.126                0.988757566     -6.42638857
7.128                0.988818055      -6.4570503
7.13                 0.988865061     -6.48801895
7.132                0.988913058     -6.51890135
7.134                0.988962033     -6.54969807
7.136                0.989011976     -6.58040972
7.138                 0.98904809     -6.61126447
7.14                 0.989084288     -6.64206729
7.142                0.989120572     -6.67281855
7.144                 0.98915694     -6.70351861
7.146                0.989182502     -6.73422562
7.148                0.989207072     -6.76486513
7.15                 0.989230661      -6.7954375
7.152                0.989253282     -6.82594311
7.154                0.989265801     -6.85641907
7.156                0.989278203     -6.88680476
7.158                0.989290495     -6.91710114
7.16                  0.98930268     -6.94730916
7.162                0.989303136     -6.97738315
7.164                0.989304186     -7.00739749
7.166                0.989305827     -7.03735283
7.168                0.989308055     -7.06724982
7.17                 0.989299501     -7.09686388
7.172                0.989290761     -7.12643994
7.174                0.989281838     -7.15597836
7.176                0.989272735     -7.18547943
7.178                0.989255226     -7.21463101
7.18                 0.989237379     -7.24371927
7.182                0.989219195     -7.27274502
7.184                0.989200675     -7.30170908
7.186                 0.98917362     -7.33030761
7.188                0.989147192     -7.35883625
7.19                 0.989121385     -7.38729544
7.192                0.989096189     -7.41568561
7.194                0.989062859     -7.44360992
7.196                0.989029855     -7.47149925
7.198                0.988997171     -7.49935382
7.2                  0.988964807      -7.5271738
7.202                0.988928243     -7.55441612
7.204                 0.98889072     -7.58163038
7.206                0.988852245     -7.60881665
7.208                0.988812825     -7.63597505
7.21                  0.98877261     -7.66255374
7.212                0.988731607     -7.68908215
7.214                0.988689823      -7.7155607
7.216                0.988647268     -7.74198975
7.218                0.988604371     -7.76784224
7.22                 0.988561446     -7.79365712
7.222                0.988518495     -7.81943488
7.224                 0.98847552     -7.84517595
7.226                  0.9884335     -7.87031004
7.228                0.988391048     -7.89542564
7.23                 0.988348168      -7.9205229
7.232                0.988304862     -7.94560191
7.234                0.988265201     -7.97010984
7.236                0.988224842     -7.99457566
7.238                0.988183787     -8.01899993
7.24                  0.98814204     -8.04338318
7.242                0.988104403     -8.06730452
7.244                0.988067015     -8.09116362
7.246                0.988029868     -8.11496091
7.248                 0.98799296     -8.13869683
7.25                 0.987959845     -8.16201225
7.252                0.987927156     -8.18529318
7.254                 0.98789489     -8.20853983
7.256                0.987863042     -8.23175234
7.258                 0.98783788      -8.2545333
7.26                 0.987811853     -8.27730131
7.262                0.987784968     -8.30005639
7.264                0.987757229     -8.32279853
7.266                 0.98773987     -8.34517408
7.268                0.987721255     -8.36751894
7.27                 0.987701395     -8.38983311
7.272                0.987680298     -8.41211657
7.274                0.987669863     -8.43414895
7.276                0.987658962     -8.45614929
7.278                0.987647598     -8.47811789
7.28                 0.987635778      -8.5000551
7.282                0.987633981     -8.52181375
7.284                0.987631848     -8.54355772
7.286                0.987629379     -8.56528713
7.288                0.987626577     -8.58700207
7.29                 0.987634159     -8.60863381
7.292                0.987641239     -8.63023627
7.294                0.987647819      -8.6518098
7.296                0.987653903     -8.67335476
7.298                0.987669429     -8.69497711
7.3                  0.987685254     -8.71654497
7.302                0.987701376     -8.73805877
7.304                 0.98771779     -8.75951897
7.306                 0.98774146     -8.78116799
7.308                0.987765876     -8.80277813
7.31                 0.987791031     -8.82434959
7.312                0.987816921     -8.84588259
7.314                0.987850696     -8.86762728
7.316                0.987884047     -8.88935731
7.318                0.987916978     -8.91107276
7.32                 0.987949491     -8.93277368
7.322                0.987992111     -8.95475525
7.324                0.988033495     -8.97670759
7.326                0.988073652     -8.99863056
7.328                0.988112592     -9.02052409
7.33                 0.988160984     -9.04280838
7.332                0.988208834     -9.06505203
7.334                0.988256149     -9.08725535
7.336                0.988302936     -9.10941866
7.338                0.988356288     -9.13202722
7.34                  0.98840966     -9.15461258
7.342                0.988463051     -9.17717499
7.344                0.988516463     -9.19971472
7.346                0.988574557     -9.22273008
7.348                0.988632609     -9.24572247
7.35                 0.988690621     -9.26869209
7.352                0.988748592     -9.29163917
7.354                0.988809196      -9.3151372
7.356                0.988870266     -9.33859077
7.358                0.988931795     -9.36200022
7.36                 0.988993782     -9.38536593
7.362                0.989055398     -9.40933832
7.364                0.989118011     -9.43327014
7.366                0.989181613     -9.45716153
7.368                0.989246198     -9.48101266
7.37                  0.98930949     -9.50544122
7.372                0.989372872     -9.52985002
7.374                0.989436347      -9.5542392
7.376                0.989499912     -9.57860892
7.378                0.989563705     -9.60353631
7.38                 0.989626516     -9.62843356
7.382                0.989688352     -9.65330065
7.384                0.989749221     -9.67813759
7.386                0.989809935     -9.70355409
7.388                0.989870096     -9.72892328
7.39                 0.989929709     -9.75424545
7.392                0.989988782     -9.77952091
7.394                0.990044723     -9.80535403
7.396                0.990100873     -9.83115513
7.398                0.990157234     -9.85692448
7.4                  0.990213805     -9.88266242
7.402                0.990264959      -9.9088792
7.404                0.990316338     -9.93507629
7.406                0.990367941      -9.9612538
7.408                0.990419769     -9.98741185
7.41                 0.990464849     -10.0140095
7.412                0.990510361     -10.0405726
7.414                0.990556301     -10.0671012
7.416                0.990602666     -10.0935959
7.418                0.990640204     -10.1205073
7.42                 0.990678739     -10.1473799
7.422                0.990718265     -10.1742137
7.424                0.990758773     -10.2010088
7.426                0.990789658     -10.2281345
7.428                0.990821025     -10.2552406
7.43                  0.99085287     -10.2823274
7.432                0.990885191     -10.3093949
7.434                0.990909862     -10.3366962
7.436                0.990933818     -10.3639783
7.438                0.990957064     -10.3912414
7.44                 0.990979605     -10.4184853
7.442                0.990995992     -10.4459144
7.444                0.991011652     -10.4733078
7.446                0.991026592     -10.5006656
7.448                0.991040819     -10.5279878
7.45                 0.991047745     -10.5554313
7.452                0.991054669     -10.5828478
7.454                0.991061592     -10.6102375
7.456                0.991068517     -10.6376007
7.458                0.991067005     -10.6649766
7.46                 0.991065601     -10.6923408
7.462                0.991064304     -10.7196937
7.464                0.991063115      -10.747035
7.466                0.991053645     -10.7743192
7.468                0.991044322     -10.8015795
7.47                 0.991035143     -10.8288162
7.472                0.991026108     -10.8560297
7.474                0.991008298     -10.8831546
7.476                0.990991237     -10.9102433
7.478                0.990974919     -10.9372958
7.48                 0.990959338     -10.9643123
7.482                0.990934901     -10.9911747
7.484                 0.99091111     -11.0180185
7.486                0.990887961     -11.0448434
7.488                0.990865452     -11.0716496
7.49                 0.990836893        -11.0982
7.492                0.990807752     -11.1247456
7.494                0.990778033     -11.1512867
7.496                0.990747737      -11.177823
7.498                0.990715052     -11.2040508
7.5                  0.990681243     -11.2302631
7.502                0.990646317     -11.2564598
7.504                0.990610279     -11.2826408
7.506                0.990572942     -11.3084936
7.508                0.990535025     -11.3343313
7.51                 0.990496532      -11.360154
7.512                0.990457466     -11.3859617
7.514                0.990417111     -11.4113998
7.516                0.990376488     -11.4368347
7.518                0.990335597     -11.4622666
7.52                  0.99029444     -11.4876954
7.522                0.990252641      -11.512742
7.524                0.990210685     -11.5377735
7.526                0.990168569     -11.5627901
7.528                0.990126295     -11.5877918
7.53                 0.990083476     -11.6124658
7.532                0.990041191     -11.6371039
7.534                0.989999434     -11.6617062
7.536                0.989958202     -11.6862729
7.538                0.989916239     -11.7105385
7.54                 0.989875087     -11.7347795
7.542                0.989834742     -11.7589959
7.544                0.989795201     -11.7831876
7.546                0.989757416     -11.8070544
7.548                0.989719271     -11.8309203
7.55                 0.989680766     -11.8547854
7.552                0.989641904     -11.8786496
7.554                0.989609182     -11.9021927
7.556                 0.98957506     -11.9257316
7.558                0.989539543     -11.9492662
7.56                 0.989502637     -11.9727961
7.562                0.989473929     -11.9960639
7.564                0.989444142     -12.0193213
7.566                 0.98941328     -12.0425682
7.568                0.989381348     -12.0658046
7.57                 0.989357094     -12.0888267
7.572                 0.98933238     -12.1118475
7.574                0.989307206     -12.1348668
7.576                0.989281574     -12.1578848
7.578                0.989262844      -12.180748
7.58                 0.989244032     -12.2036029
7.582                0.989225136     -12.2264495
7.584                0.989206159     -12.2492879
7.586                0.989192877     -12.2720837
7.588                0.989180294     -12.2948482
7.59                 0.989168406     -12.3175815
7.592                0.989157209     -12.3402837
7.594                0.989150077     -12.3630478
7.596                0.989144182      -12.385783
7.598                0.989139519     -12.4084894
7.6                  0.989136082     -12.4311668
7.602                0.989137587     -12.4539405
7.604                0.989139258       -12.47671
7.606                0.989141092     -12.4994753
7.608                0.989143091     -12.5222364
7.61                 0.989153712     -12.5451267
7.612                0.989163015     -12.5680138
7.614                0.989171003     -12.5908975
7.616                0.989177682     -12.6137773
7.618                0.989194838     -12.6368746
7.62                 0.989210681     -12.6599568
7.622                0.989225216     -12.6830236
7.624                0.989238449     -12.7060747
7.626                0.989260376     -12.7294131
7.628                0.989281857     -12.7527436
7.63                 0.989302896     -12.7760663
7.632                0.989323493     -12.7993811
7.634                0.989349845     -12.8230204
7.636                0.989376424     -12.8466552
7.638                 0.98940323     -12.8702856
7.64                 0.989430261     -12.8939118
7.642                 0.98946007      -12.917935
7.644                0.989490897     -12.9419364
7.646                0.989522737     -12.9659162
7.648                0.989555588     -12.9898743
7.65                 0.989588228      -13.014308
7.652                0.989622546     -13.0387147
7.654                0.989658533     -13.0630941
7.656                0.989696183      -13.087446
7.658                0.989732931     -13.1122923
7.66                 0.989770461     -13.1371306
7.662                0.989808772     -13.1619607
7.664                0.989847861     -13.1867827
7.666                0.989889012     -13.2120866
7.668                0.989929119     -13.2373854
7.67                 0.989968185     -13.2626791
7.672                0.990006214     -13.2879672
7.674                  0.9900486     -13.3137698
7.676                0.990089473     -13.3395514
7.678                0.990128842     -13.3653115
7.68                 0.990166714     -13.3910499
7.682                0.990207129     -13.4173213
7.684                0.990246941     -13.4435756
7.686                0.990286153     -13.4698126
7.688                0.990324771     -13.4960325
7.69                 0.990362148     -13.5227497
7.692                 0.99039984      -13.549462
7.694                0.990437847     -13.5761696
7.696                0.990476167     -13.6028725
7.698                0.990509644     -13.6300512
7.7                  0.990544235     -13.6572154
7.702                0.990579936      -13.684365
7.704                0.990616743     -13.7114999
7.706                0.990645495     -13.7391135
7.708                 0.99067614     -13.7667012
7.71                 0.990708672     -13.7942625
7.712                 0.99074308     -13.8217971
7.714                0.990768221     -13.8497774
7.716                0.990794706     -13.8777452
7.718                0.990822532     -13.9057004
7.72                 0.990851692     -13.9336428
7.722                0.990874725     -13.9619512
7.724                0.990897066     -13.9902578
7.726                0.990918717     -14.0185625
7.728                 0.99093968     -14.0468651
7.73                 0.990958624      -14.075496
7.732                0.990975709     -14.1041129
7.734                0.990990942     -14.1327152
7.736                0.991004331     -14.1613022
7.738                0.991015995     -14.1901798
7.74                 0.991026414     -14.2190424
7.742                0.991035595     -14.2478899
7.744                0.991043543      -14.276722
7.746                0.991046859     -14.3057673
7.748                0.991050037       -14.33481
7.75                 0.991053078     -14.3638501
7.752                0.991055982     -14.3928876
7.754                0.991050968     -14.4220676
7.756                0.991046838     -14.4512366
7.758                0.991043589     -14.4803946
7.76                 0.991041218     -14.5095415
7.762                0.991027866      -14.538816
7.764                0.991016491     -14.5680598
7.766                0.991007087     -14.5972723
7.768                0.990999646      -14.626453
7.77                 0.990979907     -14.6557214
7.772                0.990962127     -14.6849666
7.774                0.990946299      -14.714188
7.776                0.990932417     -14.7433849
7.778                0.990909937     -14.7725722
7.78                 0.990887237     -14.8017606
7.782                0.990864317     -14.8309502
7.784                0.990841179      -14.860141
7.786                0.990816506     -14.8892298
7.788                0.990789415     -14.9183237
7.79                 0.990759908     -14.9474218
7.792                 0.99072799     -14.9765233
7.794                0.990698681     -15.0054767
7.796                 0.99066681     -15.0344333
7.798                0.990632382     -15.0633921
7.8                  0.990595402     -15.0923522
7.802                0.990560151     -15.1211244
7.804                0.990523597     -15.1499041
7.806                0.990485743      -15.178691
7.808                 0.99044659     -15.2074849
7.81                 0.990405546     -15.2360753
7.812                0.990364957     -15.2646577
7.814                0.990324824     -15.2932321
7.816                0.990285143     -15.3217984
7.818                0.990238928     -15.3502075
7.82                 0.990195185     -15.3785777
7.822                0.990153906     -15.4069077
7.824                0.990115079     -15.4351966
7.826                0.990066654     -15.4633736
7.828                0.990021479     -15.4915084
7.83                 0.989979543     -15.5195991
7.832                0.989940834     -15.5476439
7.834                0.989896064     -15.5755319
7.836                0.989852114     -15.6034116
7.838                0.989808983     -15.6312828
7.84                 0.989766671     -15.6591453
7.842                 0.98972864      -15.686772
7.844                 0.98968763     -15.7144208
7.846                0.989643639     -15.7420906
7.848                0.989596666       -15.76978
7.85                 0.989563231     -15.7971949
7.852                0.989525071     -15.8246443
7.854                0.989482182      -15.852125
7.856                0.989434563     -15.8796336
7.858                0.989402397     -15.9068805
7.86                 0.989366576     -15.9341569
7.862                0.989327097     -15.9614606
7.864                0.989283959     -15.9887898
7.866                0.989250139     -16.0159474
7.868                0.989216195     -16.0431039
7.87                 0.989182128     -16.0702593
7.872                0.989147936     -16.0974137
7.874                0.989110952     -16.1245249
7.876                0.989078924     -16.1516051
7.878                0.989051844     -16.1786509
7.88                 0.989029703     -16.2056587
7.882                0.988993677     -16.2327282
7.884                0.988965358     -16.2597694
7.886                0.988944735     -16.2867739
7.888                0.988931792     -16.3137336
7.89                 0.988906821     -16.3407931
7.892                0.988885922     -16.3678393
7.894                 0.98886909     -16.3948701
7.896                0.988856323     -16.4218832
7.898                0.988847853     -16.4489642
7.9                  0.988836375      -16.476072
7.902                0.988821886     -16.5032055
7.904                0.988804386      -16.530363
7.906                0.988811815     -16.5574394
7.908                0.988809617     -16.5846534
7.91                 0.988797736     -16.6119919
7.912                 0.98877612     -16.6394414
7.914                0.988795095     -16.6666936
7.916                0.988800593     -16.6941147
7.918                0.988792536     -16.7216816
7.92                 0.988770864     -16.7493717
7.922                0.988785376     -16.7770792
7.924                0.988792975     -16.8048184
7.926                0.988793658     -16.8325853
7.928                0.988787421     -16.8603758
7.93                 0.988740233     -16.8882622
7.932                0.988730588     -16.9163446
7.934                 0.98875854     -16.9445141
7.936                0.988824046      -16.972664
7.938                0.988544819     -16.9978287
7.94                  0.98845942     -17.0267218
7.942                0.988571629     -17.0570037
7.944                0.988879004     -17.0864144
7.946                0.988800432     -17.0873676
7.948                0.988715728      -17.107356
7.95                 0.988731454     -17.1461449
7.952                0.988949814     -17.2018212
7.954                0.988742679     -17.2381612
7.956                0.988711178      -17.271054
7.958                0.988821025     -17.2985234
7.96                 0.989033626     -17.3190687
7.962                0.988936184     -17.3963015
7.964                0.988912695     -17.4417943
7.966                0.988972245     -17.4558423
7.968                0.989126892     -17.4382782
7.97                 0.989056281     -17.4933516
7.972                0.988996644     -17.5309391
7.974                0.989027674     -17.5523457
7.976                0.989225565     -17.5595589
7.978                0.989234734     -17.5758636
7.98                 0.989275013     -17.6013501
7.982                0.989316456     -17.6368597
7.984                0.989325459     -17.6829441
7.986                0.989504799       -17.69971
7.988                0.989600872     -17.7270159
7.99                 0.989582407      -17.763722
7.992                0.989422555     -17.8084385
7.994                0.989570067     -17.8360968
7.996                0.989637324     -17.8669141
7.998                0.989619673     -17.9003854
8                    0.989513398     -17.9359976
8.002                0.989583024     -17.9677697
8.004                0.989619922     -18.0000027
8.006                0.989623849     -18.0326235
8.008                0.989594611     -18.0655607
8.01                 0.989605042     -18.0984483
8.012                0.989619919     -18.1313313
8.014                0.989639088     -18.1642072
8.016                0.989662943     -18.1970613
8.018                 0.98964687     -18.2302186
8.02                 0.989650267     -18.2635154
8.022                 0.98967319     -18.2969215
8.024                0.989715674      -18.330407
8.026                0.989706507     -18.3639346
8.028                0.989709039     -18.3976327
8.03                 0.989723341     -18.4314858
8.032                0.989749466     -18.4654784
8.034                0.989750062     -18.4996025
8.036                0.989752304     -18.5337435
8.038                0.989756197     -18.5679013
8.04                 0.989761743     -18.6020755
8.042                0.989764285     -18.6364524
8.044                0.989763289     -18.6709034
8.046                0.989758739      -18.705427
8.048                0.989750619     -18.7400217
8.05                 0.989755736     -18.7744653
8.052                0.989751576     -18.8091322
8.054                0.989738055     -18.8440122
8.056                0.989715098     -18.8790952
8.058                0.989714318     -18.9138836
8.06                 0.989704081     -18.9488114
8.062                0.989684346     -18.9838699
8.064                0.989655074     -19.0190507
8.066                0.989636233     -19.0542106
8.068                0.989615949     -19.0893766
8.07                 0.989594221     -19.1245485
8.072                0.989571043     -19.1597264
8.074                0.989534018     -19.1950016
8.076                 0.98950385     -19.2302931
8.078                0.989480548     -19.2655962
8.08                 0.989464117     -19.3009065
8.082                0.989421104     -19.3362083
8.084                0.989385292     -19.3715691
8.086                0.989356703     -19.4069829
8.088                0.989335358     -19.4424441
8.09                 0.989294222     -19.4778545
8.092                0.989255661     -19.5132795
8.094                0.989219685     -19.5487183
8.096                0.989186299     -19.5841701
8.098                0.989146273     -19.6195882
8.1                   0.98910509     -19.6550159
8.102                 0.98906275     -19.6904531
8.104                0.989019249     -19.7258997
8.106                 0.98898113     -19.7611544
8.108                0.988938067     -19.7965072
8.11                 0.988890034     -19.8319558
8.112                0.988837007     -19.8674976
8.114                0.988799021     -19.9026793
8.116                0.988754093      -19.937968
8.118                0.988702188     -19.9733596
8.12                 0.988643278     -20.0088499
8.122                 0.98859805     -20.0440743
8.124                0.988549442     -20.0793216
8.126                0.988497446     -20.1145911
8.128                0.988442056      -20.149882
8.13                 0.988386035     -20.1850812
8.132                0.988333235     -20.2202711
8.134                 0.98828366     -20.2554508
8.136                0.988237313     -20.2906193
8.138                0.988177168     -20.3257069
8.14                 0.988123033     -20.3608136
8.142                0.988074924     -20.3959359
8.144                0.988032854     -20.4310704
8.146                0.987977378     -20.4661166
8.148                0.987925405     -20.5011722
8.15                 0.987876943      -20.536236
8.152                0.987832002     -20.5713064
8.154                0.987783507     -20.6063442
8.156                0.987734956     -20.6413758
8.158                0.987686349     -20.6764012
8.16                 0.987637688     -20.7114205
8.162                0.987596823     -20.7463624
8.164                 0.98755249     -20.7813531
8.166                0.987504674     -20.8163916
8.168                0.987453362     -20.8514768
8.17                 0.987419549     -20.8863898
8.172                0.987379753     -20.9213875
8.174                0.987333943     -20.9564666
8.176                0.987282098     -20.9916242
8.178                0.987249752     -21.0266702
8.18                 0.987213162     -21.0617489
8.182                0.987172315     -21.0968589
8.184                0.987127199     -21.1319987
8.186                0.987090588     -21.1672268
8.188                0.987055682     -21.2024433
8.19                 0.987022484     -21.2376482
8.192                0.986990998     -21.2728414
8.194                0.986952781     -21.3082235
8.196                0.986920761     -21.3436148
8.198                0.986894954     -21.3790122
8.2                  0.986875373     -21.4144132