! TOUCHSTONE file generated by CST DESIGN STUDIO
! Date and time: Mon Feb 10 16:44:14 2025
! Project name: C:\Work\MatlabApps\UnitCellType2OptimizationMatlab\CST\unitcell.cst
! Tree item: Tasks\Sweep1\SPara1\S-Parameters
! Header version: 2024
! Port assignment regex: !\s*Touchstone port\s*([0-9]+)\s*=\s*(CST MWS port|CST DES external port|CST DES block port)\s*(.+)\s* \(\"(.*)\"\)(\s*mode\s*([0-9]+))?.*
! Touchstone port assignment:
! Touchstone port 1 = CST DES external port 1 ("")
# GHz S MA R 50
7                    0.993131634     -10.0535156
7.002                0.993155493     -10.0737513
7.004                0.993178956     -10.0940099
7.006                 0.99320202     -10.1142912
7.008                0.993224683     -10.1345949
7.01                 0.993246941     -10.1549207
7.012                0.993268793     -10.1752684
7.014                0.993290236     -10.1956377
7.016                0.993311268     -10.2160282
7.018                0.993331887     -10.2364399
7.02                  0.99335209     -10.2568722
7.022                0.993371876     -10.2773251
7.024                0.993391243     -10.2977981
7.026                0.993410188     -10.3182911
7.028                0.993428711     -10.3388036
7.03                 0.993446809     -10.3593356
7.032                0.993464482     -10.3798866
7.034                0.993481727     -10.4004564
7.036                0.993498543     -10.4210446
7.038                0.993514929     -10.4416511
7.04                 0.993530885     -10.4622756
7.042                0.993546408     -10.4829177
7.044                0.993561497     -10.5035771
7.046                0.993576153     -10.5242537
7.048                0.993590374      -10.544947
7.05                 0.993604159     -10.5656569
7.052                0.993617508     -10.5863829
7.054                 0.99363042      -10.607125
7.056                0.993642896     -10.6278827
7.058                0.993654933     -10.6486557
7.06                 0.993666533     -10.6694439
7.062                0.993677695     -10.6902468
7.064                0.993688419     -10.7110643
7.066                0.993698705      -10.731896
7.068                0.993708554     -10.7527417
7.07                 0.993717965     -10.7736011
7.072                0.993726938     -10.7944739
7.074                0.993735475     -10.8153598
7.076                0.993743575     -10.8362585
7.078                 0.99375124     -10.8571698
7.08                 0.993758469     -10.8780933
7.082                0.993765264     -10.8990289
7.084                0.993771626     -10.9199762
7.086                0.993777555      -10.940935
7.088                0.993783053     -10.9619049
7.09                  0.99378812     -10.9828858
7.092                0.993792758     -11.0038773
7.094                0.993796969     -11.0248791
7.096                0.993800753     -11.0458911
7.098                0.993804112     -11.0669129
7.1                  0.993807047     -11.0879443
7.102                0.993809562      -11.108985
7.104                0.993811656     -11.1300347
7.106                0.993813332     -11.1510932
7.108                0.993814592     -11.1721603
7.11                 0.993815439     -11.1932356
7.112                0.993815873      -11.214319
7.114                0.993815897     -11.2354101
7.116                0.993815515     -11.2565088
7.118                0.993814727     -11.2776147
7.12                 0.993813536     -11.2987277
7.122                0.993811946     -11.3198474
7.124                0.993809958     -11.3409738
7.126                0.993807575     -11.3621064
7.128                0.993804801     -11.3832451
7.13                 0.993801637     -11.4043897
7.132                0.993798088     -11.4255399
7.134                0.993794156     -11.4466955
7.136                0.993789844     -11.4678562
7.138                0.993785155     -11.4890219
7.14                 0.993780093     -11.5101924
7.142                0.993774661     -11.5313674
7.144                0.993768862     -11.5525467
7.146                  0.9937627     -11.5737301
7.148                 0.99375618     -11.5949175
7.15                 0.993749303     -11.6161085
7.152                0.993742074     -11.6373031
7.154                0.993734498     -11.6585009
7.156                0.993726577     -11.6797019
7.158                0.993718316     -11.7009059
7.16                 0.993709718     -11.7221126
7.162                0.993700789      -11.743322
7.164                0.993691531     -11.7645337
7.166                 0.99368195     -11.7857477
7.168                 0.99367205     -11.8069638
7.17                 0.993661834     -11.8281818
7.172                0.993651308     -11.8494016
7.174                0.993640476      -11.870623
7.176                0.993629343     -11.8918458
7.178                0.993617912       -11.91307
7.18                  0.99360619     -11.9342954
7.182                 0.99359418     -11.9555219
7.184                0.993581887     -11.9767492
7.186                0.993569317     -11.9979774
7.188                0.993556474     -12.0192063
7.19                 0.993543363     -12.0404357
7.192                0.993529989     -12.0616656
7.194                0.993516358     -12.0828958
7.196                0.993502473     -12.1041263
7.198                0.993488342     -12.1253569
7.2                  0.993473968     -12.1465876
7.202                0.993459356     -12.1678183
7.204                0.993444514     -12.1890489
7.206                0.993429445     -12.2102793
7.208                0.993414154     -12.2315095
7.21                 0.993398649     -12.2527394
7.212                0.993382933     -12.2739689
7.214                0.993367012      -12.295198
7.216                0.993350893     -12.3164266
7.218                 0.99333458     -12.3376547
7.22                 0.993318078     -12.3588823
7.222                0.993301395     -12.3801092
7.224                0.993284535     -12.4013356
7.226                0.993267504     -12.4225614
7.228                0.993250308     -12.4437865
7.23                 0.993232952      -12.465011
7.232                0.993215442     -12.4862348
7.234                0.993197784      -12.507458
7.236                0.993179984     -12.5286805
7.238                0.993162047     -12.5499025
7.24                  0.99314398     -12.5711238
7.242                0.993125787     -12.5923445
7.244                0.993107476     -12.6135647
7.246                0.993089052     -12.6347843
7.248                 0.99307052     -12.6560035
7.25                 0.993051887     -12.6772223
7.252                0.993033158     -12.6984407
7.254                 0.99301434     -12.7196587
7.256                0.992995437     -12.7408766
7.258                0.992976457     -12.7620942
7.26                 0.992957404     -12.7833118
7.262                0.992938285     -12.8045294
7.264                0.992919106      -12.825747
7.266                0.992899872     -12.8469648
7.268                 0.99288059     -12.8681829
7.27                 0.992861264     -12.8894013
7.272                0.992841901     -12.9106203
7.274                0.992822507     -12.9318399
7.276                0.992803088     -12.9530602
7.278                0.992783648     -12.9742813
7.28                 0.992764195     -12.9955035
7.282                0.992744733     -13.0167268
7.284                0.992725269     -13.0379513
7.286                0.992705808     -13.0591773
7.288                0.992686355      -13.080405
7.29                 0.992666917     -13.1016343
7.292                0.992647499     -13.1228656
7.294                0.992628106      -13.144099
7.296                0.992608744     -13.1653347
7.298                0.992589418     -13.1865728
7.3                  0.992570135     -13.2078136
7.302                0.992550899     -13.2290573
7.304                0.992531715      -13.250304
7.306                 0.99251259      -13.271554
7.308                0.992493528     -13.2928074
7.31                 0.992474535     -13.3140646
7.312                0.992455615     -13.3353257
7.314                0.992436775     -13.3565909
7.316                0.992418018     -13.3778604
7.318                0.992399351     -13.3991346
7.32                 0.992380777     -13.4204137
7.322                0.992362303     -13.4416978
7.324                0.992343933     -13.4629873
7.326                0.992325672     -13.4842824
7.328                0.992307524     -13.5055834
7.33                 0.992289495     -13.5268905
7.332                0.992271589     -13.5482041
7.334                 0.99225381     -13.5695243
7.336                0.992236164     -13.5908515
7.338                0.992218654     -13.6121859
7.34                 0.992201286     -13.6335279
7.342                0.992184063     -13.6548778
7.344                 0.99216699     -13.6762357
7.346                0.992150071     -13.6976021
7.348                 0.99213331     -13.7189772
7.35                 0.992116711     -13.7403614
7.352                0.992100278      -13.761755
7.354                0.992084016     -13.7831582
7.356                0.992067928     -13.8045714
7.358                0.992052018      -13.825995
7.36                 0.992036289     -13.8474292
7.362                0.992020746     -13.8688743
7.364                0.992005392     -13.8903309
7.366                 0.99199023      -13.911799
7.368                0.991975263     -13.9332792
7.37                 0.991960496     -13.9547718
7.372                0.991945931      -13.976277
7.374                0.991931572     -13.9977953
7.376                0.991917422     -14.0193269
7.378                0.991903483     -14.0408724
7.38                 0.991889758     -14.0624319
7.382                0.991876251      -14.084006
7.384                0.991862965     -14.1055949
7.386                0.991849901      -14.127199
7.388                0.991837063     -14.1488187
7.39                 0.991824452     -14.1704544
7.392                0.991812073     -14.1921064
7.394                0.991799926     -14.2137751
7.396                0.991788014     -14.2354609
7.398                0.991776339     -14.2571642
7.4                  0.991764904     -14.2788854
7.402                0.991753709     -14.3006248
7.404                0.991742758     -14.3223828
7.406                0.991732053     -14.3441598
7.408                0.991721593     -14.3659563
7.41                 0.991711383     -14.3877726
7.412                0.991701422      -14.409609
7.414                0.991691712     -14.4314661
7.416                0.991682255     -14.4533441
7.418                0.991673053     -14.4752435
7.42                 0.991664105     -14.4971647
7.422                0.991655414     -14.5191081
7.424                0.991646981     -14.5410741
7.426                0.991638805      -14.563063
7.428                0.991630889     -14.5850754
7.43                 0.991623233     -14.6071115
7.432                0.991615837     -14.6291718
7.434                0.991608703     -14.6512567
7.436                 0.99160183     -14.6733666
7.438                0.991595219     -14.6955018
7.44                  0.99158887     -14.7176629
7.442                0.991582784     -14.7398502
7.444                 0.99157696     -14.7620641
7.446                0.991571399      -14.784305
7.448                0.991566101     -14.8065733
7.45                 0.991561065     -14.8288695
7.452                0.991556292     -14.8511938
7.454                 0.99155178     -14.8735468
7.456                 0.99154753     -14.8959288
7.458                0.991543542     -14.9183403
7.46                 0.991539813     -14.9407815
7.462                0.991536345      -14.963253
7.464                0.991533136     -14.9857552
7.466                0.991530185     -15.0082883
7.468                0.991527491     -15.0308529
7.47                 0.991525054     -15.0534493
7.472                0.991522872     -15.0760779
7.474                0.991520945     -15.0987392
7.476                0.991519271     -15.1214334
7.478                0.991517848     -15.1441611
7.48                 0.991516675     -15.1669225
7.482                0.991515752     -15.1897181
7.484                0.991515075     -15.2125483
7.486                0.991514644     -15.2354134
7.488                0.991514458     -15.2583138
7.49                 0.991514513       -15.28125
7.492                0.991514809     -15.3042223
7.494                0.991515343      -15.327231
7.496                0.991516113     -15.3502766
7.498                0.991517118     -15.3733594
7.5                  0.991518355     -15.3964799
7.502                0.991519821     -15.4196383
7.504                0.991521516      -15.442835
7.506                0.991523436     -15.4660705
7.508                0.991525578      -15.489345
7.51                 0.991527941     -15.5126589
7.512                0.991530522     -15.5360127
7.514                0.991533317     -15.5594066
7.516                0.991536326      -15.582841
7.518                0.991539544     -15.6063162
7.52                 0.991542969     -15.6298327
7.522                0.991546597     -15.6533907
7.524                0.991550427     -15.6769906
7.526                0.991554455     -15.7006327
7.528                0.991558678     -15.7243174
7.53                 0.991563092     -15.7480451
7.532                0.991567696     -15.7718159
7.534                0.991572484     -15.7956304
7.536                0.991577455     -15.8194887
7.538                0.991582605     -15.8433913
7.54                 0.991587929     -15.8673384
7.542                0.991593426     -15.8913303
7.544                0.991599091     -15.9153675
7.546                0.991604921     -15.9394501
7.548                0.991610912     -15.9635785
7.55                  0.99161706      -15.987753
7.552                0.991623363     -16.0119739
7.554                0.991629815     -16.0362415
7.556                0.991636414     -16.0605561
7.558                0.991643155      -16.084918
7.56                 0.991650034     -16.1093275
7.562                0.991657049     -16.1337848
7.564                0.991664194     -16.1582902
7.566                0.991671465     -16.1828441
7.568                 0.99167886     -16.2074466
7.57                 0.991686373     -16.2320981
7.572                   0.991694     -16.2567989
7.574                0.991701737     -16.2815491
7.576                0.991709581     -16.3063491
7.578                0.991717527      -16.331199
7.58                  0.99172557     -16.3560993
7.582                0.991733706       -16.38105
7.584                0.991741932     -16.4060515
7.586                0.991750243     -16.4311039
7.588                0.991758633     -16.4562076
7.59                   0.9917671     -16.4813628
7.592                0.991775639     -16.5065696
7.594                0.991784244     -16.5318284
7.596                0.991792912     -16.5571393
7.598                0.991801639     -16.5825026
7.6                  0.991810419     -16.6079184
7.602                0.991819249     -16.6333871
7.604                0.991828123     -16.6589087
7.606                0.991837037     -16.6844835
7.608                0.991845987     -16.7101117
7.61                 0.991854969     -16.7357935
7.612                0.991863976     -16.7615291
7.614                0.991873005     -16.7873187
7.616                0.991882052     -16.8131624
7.618                0.991891111     -16.8390605
7.62                 0.991900179      -16.865013
7.622                0.991909249     -16.8910203
7.624                0.991918319     -16.9170824
7.626                0.991927383     -16.9431996
7.628                0.991936436     -16.9693719
7.63                 0.991945474     -16.9955996
7.632                0.991954492     -17.0218827
7.634                0.991963485     -17.0482215
7.636                 0.99197245     -17.0746162
7.638                0.991981381     -17.1010667
7.64                 0.991990274     -17.1275733
7.642                0.991999123     -17.1541362
7.644                0.992007925     -17.1807553
7.646                0.992016675      -17.207431
7.648                0.992025368     -17.2341632
7.65                 0.992033999     -17.2609522
7.652                0.992042565      -17.287798
7.654                0.992051059     -17.3147007
7.656                0.992059479     -17.3416605
7.658                0.992067819     -17.3686775
7.66                 0.992076075     -17.3957517
7.662                0.992084242     -17.4228833
7.664                0.992092315     -17.4500724
7.666                0.992100291      -17.477319
7.668                0.992108165     -17.5046232
7.67                 0.992115932     -17.5319852
7.672                0.992123588      -17.559405
7.674                0.992131128     -17.5868827
7.676                0.992138549     -17.6144183
7.678                0.992145845      -17.642012
7.68                 0.992153013     -17.6696638
7.682                0.992160048     -17.6973737
7.684                0.992166946     -17.7251419
7.686                0.992173702     -17.7529684
7.688                0.992180313     -17.7808532
7.69                 0.992186774     -17.8087964
7.692                0.992193082      -17.836798
7.694                0.992199231     -17.8648582
7.696                0.992205218     -17.8929768
7.698                0.992211039     -17.9211541
7.7                  0.992216689       -17.94939
7.702                0.992222166     -17.9776845
7.704                0.992227464     -18.0060377
7.706                0.992232581     -18.0344496
7.708                0.992237511     -18.0629202
7.71                 0.992242252     -18.0914496
7.712                0.992246799     -18.1200377
7.714                0.992251149     -18.1486847
7.716                0.992255298     -18.1773904
7.718                0.992259243      -18.206155
7.72                 0.992262979     -18.2349784
7.722                0.992266503     -18.2638607
7.724                0.992269812     -18.2928018
7.726                0.992272903     -18.3218017
7.728                0.992275771     -18.3508605
7.73                 0.992278413     -18.3799781
7.732                0.992280827     -18.4091546
7.734                0.992283008     -18.4383899
7.736                0.992284954      -18.467684
7.738                0.992286662     -18.4970369
7.74                 0.992288127     -18.5264486
7.742                0.992289348     -18.5559191
7.744                0.992290321     -18.5854484
7.746                0.992291043     -18.6150364
7.748                0.992291512     -18.6446832
7.75                 0.992291723     -18.6743886
7.752                0.992291676     -18.7041528
7.754                0.992291366     -18.7339756
7.756                0.992290792      -18.763857
7.758                 0.99228995      -18.793797
7.76                 0.992288839     -18.8237956
7.762                0.992287454     -18.8538527
7.764                0.992285795     -18.8839683
7.766                0.992283859     -18.9141424
7.768                0.992281643     -18.9443749
7.77                 0.992279145     -18.9746659
7.772                0.992276363     -19.0050151
7.774                0.992273294     -19.0354227
7.776                0.992269938     -19.0658886
7.778                0.992266291     -19.0964127
7.78                 0.992262352      -19.126995
7.782                0.992258118     -19.1576355
7.784                0.992253589      -19.188334
7.786                0.992248762     -19.2190906
7.788                0.992243636     -19.2499053
7.79                 0.992238208     -19.2807779
7.792                0.992232478     -19.3117084
7.794                0.992226444     -19.3426969
7.796                0.992220105     -19.3737431
7.798                0.992213459     -19.4048472
7.8                  0.992206504     -19.4360089
7.802                 0.99219924     -19.4672284
7.804                0.992191666     -19.4985055
7.806                 0.99218378     -19.5298402
7.808                0.992175582     -19.5612325
7.81                  0.99216707     -19.5926823
7.812                0.992158244     -19.6241895
7.814                0.992149103     -19.6557541
7.816                0.992139646     -19.6873761
7.818                0.992129872     -19.7190555
7.82                 0.992119781      -19.750792
7.822                0.992109373     -19.7825858
7.824                0.992098646     -19.8144368
7.826                0.992087601      -19.846345
7.828                0.992076237     -19.8783102
7.83                 0.992064554     -19.9103325
7.832                0.992052552     -19.9424118
7.834                0.992040231      -19.974548
7.836                 0.99202759     -20.0067412
7.838                 0.99201463     -20.0389913
7.84                 0.992001351     -20.0712982
7.842                0.991987752      -20.103662
7.844                0.991973835     -20.1360826
7.846                  0.9919596     -20.1685599
7.848                0.991945046     -20.2010939
7.85                 0.991930175     -20.2336846
7.852                0.991914987      -20.266332
7.854                0.991899483     -20.2990361
7.856                0.991883662     -20.3317967
7.858                0.991867527      -20.364614
7.86                 0.991851077     -20.3974878
7.862                0.991834314     -20.4304181
7.864                0.991817239     -20.4634051
7.866                0.991799852     -20.4964485
7.868                0.991782155     -20.5295484
7.87                 0.991764148     -20.5627049
7.872                0.991745834     -20.5959178
7.874                0.991727213     -20.6291872
7.876                0.991708286     -20.6625131
7.878                0.991689056     -20.6958955
7.88                 0.991669523     -20.7293343
7.882                0.991649689     -20.7628297
7.884                0.991629555     -20.7963815
7.886                0.991609124     -20.8299899
7.888                0.991588397     -20.8636548
7.89                 0.991567376     -20.8973762
7.892                0.991546063     -20.9311542
7.894                0.991524459     -20.9649888
7.896                0.991502566       -20.99888
7.898                0.991480387     -21.0328278
7.9                  0.991457924     -21.0668323
7.902                0.991435179     -21.1008934
7.904                0.991412153     -21.1350114
7.906                 0.99138885     -21.1691861
7.908                0.991365271     -21.2034176
7.91                  0.99134142     -21.2377061
7.912                0.991317297     -21.2720515
7.914                0.991292907     -21.3064538
7.916                0.991268251     -21.3409133
7.918                0.991243332     -21.3754298
7.92                 0.991218153     -21.4100035
7.922                0.991192716     -21.4446346
7.924                0.991167024     -21.4793229
7.926                 0.99114108     -21.5140687
7.928                0.991114887     -21.5488719
7.93                 0.991088448     -21.5837328
7.932                0.991061765     -21.6186514
7.934                0.991034841     -21.6536277
7.936                 0.99100768      -21.688662
7.938                0.990980285     -21.7237542
7.94                 0.990952659     -21.7589046
7.942                0.990924804     -21.7941132
7.944                0.990896725     -21.8293801
7.946                0.990868423     -21.8647055
7.948                0.990839904     -21.9000896
7.95                  0.99081117     -21.9355323
7.952                0.990782223     -21.9710339
7.954                0.990753069     -22.0065946
7.956                0.990723709     -22.0422144
7.958                0.990694149     -22.0778936
7.96                  0.99066439     -22.1136323
7.962                0.990634437     -22.1494306
7.964                0.990604293     -22.1852887
7.966                0.990573962     -22.2212068
7.968                0.990543447     -22.2571851
7.97                 0.990512752     -22.2932238
7.972                 0.99048188      -22.329323
7.974                0.990450836     -22.3654829
7.976                0.990419623     -22.4017038
7.978                0.990388245     -22.4379859
7.98                 0.990356706     -22.4743293
7.982                0.990325008     -22.5107343
7.984                0.990293157     -22.5472011
7.986                0.990261156       -22.58373
7.988                0.990229008     -22.6203211
7.99                 0.990196719     -22.6569747
7.992                 0.99016429      -22.693691
7.994                0.990131727     -22.7304704
7.996                0.990099033      -22.767313
7.998                0.990066213     -22.8042191
8                    0.990033269      -22.841189
8.002                0.990000206      -22.878223
8.004                0.989967028     -22.9153212
8.006                0.989933739     -22.9524842
8.008                0.989900343      -22.989712
8.01                 0.989866843      -23.027005
8.012                0.989833244     -23.0643635
8.014                0.989799549     -23.1017878
8.016                0.989765763     -23.1392782
8.018                 0.98973189     -23.1768351
8.02                 0.989697932     -23.2144587
8.022                0.989663895     -23.2521494
8.024                0.989629782     -23.2899076
8.026                0.989595598     -23.3277335
8.028                0.989561345     -23.3656275
8.03                 0.989527028       -23.40359
8.032                0.989492651     -23.4416213
8.034                0.989458218     -23.4797218
8.036                0.989423732     -23.5178919
8.038                0.989389197     -23.5561319
8.04                 0.989354618     -23.5944423
8.042                0.989319998     -23.6328233
8.044                 0.98928534     -23.6712755
8.046                 0.98925065     -23.7097991
8.048                0.989215929     -23.7483947
8.05                 0.989181183     -23.7870625
8.052                0.989146415     -23.8258032
8.054                0.989111628     -23.8646169
8.056                0.989076826     -23.9035043
8.058                0.989042013     -23.9424657
8.06                 0.989007193     -23.9815015
8.062                0.988972368     -24.0206123
8.064                0.988937543     -24.0597984
8.066                0.988902721     -24.0990603
8.068                0.988867906     -24.1383986
8.07                 0.988833101     -24.1778135
8.072                0.988798309     -24.2173057
8.074                0.988763535     -24.2568756
8.076                 0.98872878     -24.2965237
8.078                0.988694049     -24.3362505
8.08                 0.988659345     -24.3760564
8.082                0.988624671     -24.4159421
8.084                 0.98859003     -24.4559079
8.086                0.988555425     -24.4959544
8.088                 0.98852086     -24.5360822
8.09                 0.988486338     -24.5762917
8.092                0.988451861     -24.6165835
8.094                0.988417432     -24.6569581
8.096                0.988383056     -24.6974161
8.098                0.988348733     -24.7379579
8.1                  0.988314468     -24.7785842
8.102                0.988280263     -24.8192956
8.104                 0.98824612     -24.8600925
8.106                0.988212043     -24.9009755
8.108                0.988178034     -24.9419453
8.11                 0.988144096     -24.9830024
8.112                0.988110231     -25.0241473
8.114                0.988076441     -25.0653807
8.116                0.988042729     -25.1067032
8.118                0.988009098     -25.1481153
8.12                  0.98797555     -25.1896177
8.122                0.987942086     -25.2312109
8.124                 0.98790871     -25.2728956
8.126                0.987875422     -25.3146725
8.128                0.987842226      -25.356542
8.13                 0.987809123     -25.3985049
8.132                0.987776116     -25.4405618
8.134                0.987743205     -25.4827133
8.136                0.987710394     -25.5249601
8.138                0.987677683     -25.5673028
8.14                 0.987645074     -25.6097421
8.142                0.987612569     -25.6522785
8.144                 0.98758017     -25.6949129
8.146                0.987547877     -25.7376458
8.148                0.987515693     -25.7804779
8.15                 0.987483619     -25.8234099
8.152                0.987451656     -25.8664424
8.154                0.987419805     -25.9095762
8.156                0.987388067      -25.952812
8.158                0.987356443     -25.9961503
8.16                 0.987324935      -26.039592
8.162                0.987293544     -26.0831377
8.164                0.987262269     -26.1267882
8.166                0.987231113      -26.170544
8.168                0.987200075      -26.214406
8.17                 0.987169157     -26.2583749
8.172                0.987138358     -26.3024513
8.174                 0.98710768     -26.3466361
8.176                0.987077123     -26.3909298
8.178                0.987046687     -26.4353333
8.18                 0.987016372     -26.4798474
8.182                0.986986179     -26.5244726
8.184                0.986956108     -26.5692098
8.186                0.986926158     -26.6140597
8.188                0.986896331     -26.6590231
8.19                 0.986866624     -26.7041008
8.192                 0.98683704     -26.7492933
8.194                0.986807577     -26.7946017
8.196                0.986778234     -26.8400265
8.198                0.986749012     -26.8855686
8.2                  0.986719911     -26.9312287