! TOUCHSTONE file generated by CST DESIGN STUDIO
! Date and time: Mon Feb 10 16:44:18 2025
! Project name: C:\Work\MatlabApps\UnitCellType2OptimizationMatlab\CST\unitcell.cst
! Tree item: Tasks\Sweep1\SPara1\S-Parameters
! Header version: 2024
! Port assignment regex: !\s*Touchstone port\s*([0-9]+)\s*=\s*(CST MWS port|CST DES external port|CST DES block port)\s*(.+)\s* \(\"(.*)\"\)(\s*mode\s*([0-9]+))?.*
! Touchstone port assignment:
! Touchstone port 1 = CST DES external port 1 ("")
# GHz S MA R 50
7                    0.990257976     -7.64989951
7.002                0.990295913      -7.6752356
7.004                0.990334168     -7.70052572
7.006                0.990372739     -7.72577019
7.008                0.990411622     -7.75096933
7.01                 0.990447711     -7.77622356
7.012                0.990483579     -7.80144627
7.014                0.990519228     -7.82663766
7.016                0.990554661     -7.85179793
7.018                0.990588656     -7.87700497
7.02                 0.990622039     -7.90216967
7.022                0.990654816     -7.92729225
7.024                0.990686994     -7.95237292
7.026                0.990717823     -7.97754767
7.028                0.990748392     -8.00265975
7.03                 0.990778708     -8.02770974
7.032                0.990808777     -8.05269818
7.034                0.990836012     -8.07780933
7.036                0.990863647     -8.10285639
7.038                0.990891682     -8.12784018
7.04                 0.990920116     -8.15276154
7.042                0.990944524     -8.17777448
7.044                0.990969471     -8.20274311
7.046                0.990994952     -8.22766794
7.048                0.991020964     -8.25254949
7.05                 0.991043635     -8.27746275
7.052                0.991066296     -8.30234911
7.054                0.991088948     -8.32720875
7.056                0.991111591     -8.35204184
7.058                0.991132614     -8.37688511
7.06                 0.991153042     -8.40169873
7.062                0.991172882     -8.42648304
7.064                0.991192138     -8.45123841
7.066                0.991210655     -8.47602364
7.068                0.991228625     -8.50076391
7.07                 0.991246052     -8.52545982
7.072                 0.99126294     -8.55011198
7.074                0.991278214     -8.57482626
7.076                0.991293502     -8.59948976
7.078                0.991308802     -8.62410293
7.08                 0.991324112     -8.64866622
7.082                0.991336644     -8.67327601
7.084                0.991349502     -8.69784807
7.086                0.991362681     -8.72238262
7.088                0.991376179     -8.74687987
7.09                  0.99138698     -8.77137992
7.092                0.991397781     -8.79585824
7.094                0.991408582     -8.82031497
7.096                0.991419381     -8.84475024
7.098                0.991428702     -8.86916727
7.1                  0.991437567     -8.89356078
7.102                 0.99144598     -8.91793086
7.104                0.991453945      -8.9422776
7.106                0.991461084     -8.96662994
7.108                0.991467841     -8.99094284
7.11                 0.991474223     -9.01521656
7.112                0.991480232     -9.03945136
7.114                0.991484589     -9.06372388
7.116                0.991489074     -9.08794988
7.118                0.991493689     -9.11212989
7.12                 0.991498435     -9.13626442
7.122                0.991500442     -9.16042812
7.124                 0.99150286       -9.184557
7.126                0.991505686     -9.20865147
7.128                0.991508918     -9.23271195
7.13                 0.991509567     -9.25675437
7.132                0.991510324     -9.28077789
7.134                0.991511189     -9.30478263
7.136                0.991512162     -9.32876872
7.138                0.991511858     -9.35271472
7.14                 0.991511135     -9.37664372
7.142                0.991509998     -9.40055592
7.144                 0.99150845     -9.42445147
7.146                0.991506734     -9.44831629
7.148                0.991504474     -9.47215194
7.15                 0.991501672     -9.49595884
7.152                0.991498331      -9.5197374
7.154                0.991494539     -9.54351788
7.156                0.991490603     -9.56725976
7.158                0.991486524     -9.59096341
7.16                 0.991482301      -9.6146292
7.162                 0.99147657     -9.63830225
7.164                0.991471083     -9.66194331
7.166                0.991465838     -9.68555256
7.168                0.991460831     -9.70913015
7.17                 0.991454055     -9.73268484
7.172                0.991447384     -9.75622287
7.174                0.991440818     -9.77974432
7.176                0.991434354     -9.80324929
7.178                0.991427116     -9.82670238
7.18                 0.991419537     -9.85014348
7.182                0.991411619     -9.87357265
7.184                0.991403366     -9.89698991
7.186                 0.99139528     -9.92036484
7.188                0.991386725       -9.943717
7.19                 0.991377704     -9.96704648
7.192                 0.99136822     -9.99035335
7.194                 0.99135867     -10.0136518
7.196                0.991348993     -10.0369176
7.198                0.991339195     -10.0601511
7.2                  0.991329276     -10.0833526
7.202                0.991318351     -10.1065504
7.204                0.991307649     -10.1297206
7.206                0.991297169     -10.1528636
7.208                0.991286911     -10.1759797
7.21                 0.991275398     -10.1990688
7.212                0.991264011     -10.2221435
7.214                 0.99125275     -10.2452042
7.216                0.991241612     -10.2682508
7.218                0.991230097     -10.2912432
7.22                 0.991218289     -10.3142262
7.222                0.991206187     -10.3372001
7.224                0.991193796     -10.3601649
7.226                0.991182119     -10.3830826
7.228                0.991169926     -10.4059821
7.23                  0.99115722     -10.4288637
7.232                0.991144004     -10.4517277
7.234                0.991131601      -10.474577
7.236                0.991118942     -10.4973969
7.238                0.991106028     -10.5201877
7.24                 0.991092858     -10.5429497
7.242                0.991079584     -10.5657148
7.244                0.991066463     -10.5884516
7.246                0.991053491     -10.6111604
7.248                0.991040667     -10.6338411
7.25                 0.991027268     -10.6565108
7.252                0.991014035     -10.6791653
7.254                0.991000968     -10.7018046
7.256                0.990988064     -10.7244287
7.258                0.990975248     -10.7470134
7.26                 0.990962208     -10.7695916
7.262                0.990948944     -10.7921635
7.264                0.990935458     -10.8147289
7.266                0.990923125      -10.837254
7.268                0.990910299      -10.859767
7.27                 0.990896981     -10.8822678
7.272                0.990883177     -10.9047564
7.274                0.990870765     -10.9272346
7.276                0.990858042     -10.9496901
7.278                0.990845011      -10.972123
7.28                 0.990831674     -10.9945333
7.282                 0.99081902     -11.0169544
7.284                0.990806413     -11.0393527
7.286                0.990793855     -11.0617284
7.288                0.990781347     -11.0840818
7.29                 0.990768952     -11.1064337
7.292                0.990756675      -11.128773
7.294                0.990744514     -11.1511001
7.296                 0.99073247     -11.1734149
7.298                0.990720941     -11.1957123
7.3                  0.990709241     -11.2180042
7.302                 0.99069737     -11.2402907
7.304                0.990685327     -11.2625717
7.306                0.990674765     -11.2848326
7.308                0.990663773     -11.3070826
7.31                 0.990652352     -11.3293218
7.312                0.990640505     -11.3515506
7.314                0.990630368     -11.3737921
7.316                0.990619936     -11.3960113
7.318                0.990609212     -11.4182085
7.32                 0.990598195     -11.4403839
7.322                 0.99058821     -11.4626028
7.324                0.990578319     -11.4847963
7.326                 0.99056852     -11.5069644
7.328                0.990558813     -11.5291072
7.33                 0.990549408     -11.5512885
7.332                0.990540231     -11.5734539
7.334                0.990531281     -11.5956036
7.336                0.990522556     -11.6177376
7.338                0.990514505     -11.6398876
7.34                 0.990506373     -11.6620328
7.342                0.990498158      -11.684173
7.344                0.990489862     -11.7063083
7.346                0.990483226     -11.7284541
7.348                 0.99047615     -11.7505937
7.35                 0.990468635      -11.772727
7.352                0.990460685     -11.7948541
7.354                0.990454942     -11.8170151
7.356                0.990448787       -11.83916
7.358                0.990442223     -11.8612888
7.36                 0.990435253     -11.8834015
7.362                0.990430024     -11.9055744
7.364                0.990424712     -11.9277272
7.366                0.990419319     -11.9498601
7.368                0.990413846     -11.9719734
7.37                 0.990409336     -11.9941479
7.372                0.990404938     -12.0163096
7.374                0.990400651     -12.0384587
7.376                0.990396477     -12.0605953
7.378                 0.99039323       -12.08278
7.38                 0.990389944     -12.1049602
7.382                0.990386617     -12.1271361
7.384                 0.99038325     -12.1493076
7.386                0.990381483     -12.1715205
7.388                0.990379422     -12.1937271
7.39                 0.990377068     -12.2159276
7.392                0.990374421     -12.2381221
7.394                 0.99037373     -12.2603847
7.396                0.990372774     -12.2826309
7.398                0.990371555     -12.3048608
7.4                  0.990370073     -12.3270746
7.402                0.990370022     -12.3493896
7.404                0.990370044     -12.3716819
7.406                0.990370137     -12.3939515
7.408                  0.9903703     -12.4161987
7.41                 0.990371072     -12.4385556
7.412                0.990372137     -12.4608959
7.414                0.990373494     -12.4832193
7.416                0.990375142     -12.5055261
7.418                0.990377401     -12.5279253
7.42                  0.99037974      -12.550319
7.422                0.990382159     -12.5727071
7.424                0.990384656     -12.5950897
7.426                0.990388666      -12.617551
7.428                0.990392349     -12.6400091
7.43                 0.990395708      -12.662464
7.432                0.990398743     -12.6849156
7.434                0.990404039     -12.7074661
7.436                0.990408893      -12.730005
7.438                0.990413307     -12.7525322
7.44                 0.990417285     -12.7750476
7.442                0.990423266     -12.7976892
7.444                0.990429068     -12.8203124
7.446                0.990434692     -12.8429174
7.448                0.990440142     -12.8655042
7.45                 0.990446755     -12.8882282
7.452                 0.99045347      -12.910938
7.454                0.990460287     -12.9336338
7.456                0.990467207     -12.9563156
7.458                0.990474866     -12.9791193
7.46                 0.990482608     -13.0019178
7.462                0.990490433      -13.024711
7.464                 0.99049834     -13.0474991
7.466                0.990507309     -13.0704006
7.468                0.990516139     -13.0932986
7.47                 0.990524829     -13.1161933
7.472                0.990533381     -13.1390845
7.474                0.990543386     -13.1621055
7.476                0.990553192      -13.185115
7.478                0.990562798     -13.2081131
7.48                 0.990572207     -13.2310999
7.482                0.990582755     -13.2542445
7.484                0.990593368     -13.2773691
7.486                0.990604043     -13.3004741
7.488                 0.99061478     -13.3235596
7.49                 0.990625778     -13.3468214
7.492                 0.99063712     -13.3700656
7.494                0.990648805     -13.3932922
7.496                0.990660831     -13.4165012
7.498                0.990672825      -13.439871
7.5                  0.990685058     -13.4632336
7.502                0.990697529     -13.4865889
7.504                0.990710238     -13.5099372
7.506                0.990723638     -13.5334307
7.508                0.990736861     -13.5569224
7.51                 0.990749908     -13.5804122
7.512                0.990762778     -13.6039001
7.514                0.990777243     -13.6275425
7.516                0.990791282     -13.6511765
7.518                0.990804895     -13.6748022
7.52                 0.990818086     -13.6984196
7.522                0.990832947     -13.7222151
7.524                0.990847547     -13.7459938
7.526                0.990861889     -13.7697555
7.528                0.990875974     -13.7935005
7.53                 0.990890912     -13.8174433
7.532                0.990905915       -13.84137
7.534                0.990920985     -13.8652809
7.536                0.990936123     -13.8891761
7.538                 0.99095139     -13.9132563
7.54                 0.990966828     -13.9373292
7.542                0.990982437     -13.9613948
7.544                0.990998217     -13.9854534
7.546                0.991014165     -14.0096816
7.548                0.991030116     -14.0339075
7.55                  0.99104607     -14.0581311
7.552                0.991062028     -14.0823524
7.554                0.991078514     -14.1067494
7.556                0.991094871     -14.1311388
7.558                0.991111099     -14.1555207
7.56                 0.991127199     -14.1798952
7.562                0.991143724     -14.2044674
7.564                0.991160294     -14.2290225
7.566                0.991176907     -14.2535608
7.568                0.991193562     -14.2780825
7.57                  0.99120981     -14.3028248
7.572                0.991226418     -14.3275487
7.574                0.991243385     -14.3522541
7.576                0.991260709     -14.3769412
7.578                 0.99127707       -14.40184
7.58                 0.991293807     -14.4267294
7.582                0.991310921     -14.4516091
7.584                0.991328408     -14.4764793
7.586                0.991345399     -14.5015404
7.588                0.991362377     -14.5265998
7.59                 0.991379343     -14.5516576
7.592                0.991396297     -14.5767139
7.594                0.991413803     -14.6019571
7.596                0.991430925     -14.6271952
7.598                0.991447664     -14.6524281
7.6                  0.991464022     -14.6776557
7.602                0.991481344     -14.7030919
7.604                0.991498318     -14.7285133
7.606                0.991514947     -14.7539197
7.608                0.991531235     -14.7793112
7.61                 0.991547837     -14.8049307
7.612                0.991564424     -14.8305326
7.614                0.991580999     -14.8561172
7.616                0.991597563     -14.8816845
7.618                0.991613567     -14.9074736
7.62                 0.991629774     -14.9332528
7.622                0.991646187     -14.9590222
7.624                0.991662804     -14.9847819
7.626                0.991678579     -15.0107444
7.628                0.991694466     -15.0367047
7.63                 0.991710465     -15.0626627
7.632                0.991726576     -15.0886184
7.634                0.991742193     -15.1147654
7.636                0.991757737     -15.1409079
7.638                0.991773206     -15.1670459
7.64                 0.991788602     -15.1931796
7.642                0.991803616     -15.2195268
7.644                0.991818627     -15.2458596
7.646                0.991833634     -15.2721783
7.648                0.991848636     -15.2984829
7.65                 0.991862593     -15.3250206
7.652                0.991876877     -15.3515387
7.654                0.991891485     -15.3780372
7.656                0.991906415     -15.4045162
7.658                0.991919521     -15.4312313
7.66                 0.991933106     -15.4579335
7.662                 0.99194717     -15.4846226
7.664                0.991961711     -15.5112987
7.666                0.991974595     -15.5381858
7.668                0.991987639     -15.5650703
7.67                 0.992000842     -15.5919525
7.672                0.992014206     -15.6188321
7.674                0.992027058     -15.6459041
7.676                0.992039586     -15.6729741
7.678                0.992051791      -15.700042
7.68                 0.992063674     -15.7271078
7.682                0.992075877     -15.7543812
7.684                0.992087628     -15.7816427
7.686                 0.99209893     -15.8088923
7.688                0.992109784     -15.8361298
7.69                 0.992120629     -15.8636018
7.692                0.992131318     -15.8910556
7.694                0.992141854     -15.9184912
7.696                0.992152239     -15.9459087
7.698                0.992161653     -15.9735562
7.7                  0.992171236     -16.0011908
7.702                0.992180987     -16.0288127
7.704                0.992190908     -16.0564221
7.706                0.992199308     -16.0842411
7.708                0.992207884     -16.1120569
7.71                 0.992216637     -16.1398695
7.712                0.992225567      -16.167679
7.714                0.992233208     -16.1956799
7.716                0.992240807     -16.2236788
7.718                0.992248363     -16.2516756
7.72                 0.992255877     -16.2796704
7.722                0.992262504     -16.3078679
7.724                 0.99226904     -16.3360534
7.726                0.992275484      -16.364227
7.728                0.992281836      -16.392389
7.73                  0.99228684     -16.4207832
7.732                0.992292069     -16.4491556
7.734                0.992297521     -16.4775064
7.736                0.992303193     -16.5058358
7.738                0.992306544     -16.5344037
7.74                 0.992310434      -16.562953
7.742                0.992314862     -16.5914837
7.744                0.992319824     -16.6199955
7.746                0.992322264     -16.6487251
7.748                0.992325052      -16.677449
7.75                 0.992328185     -16.7061672
7.752                0.992331664     -16.7348797
7.754                0.992333742     -16.7637754
7.756                0.992335584     -16.7926715
7.758                0.992337189     -16.8215679
7.76                 0.992338558     -16.8504647
7.762                 0.99233986     -16.8795516
7.764                0.992340582     -16.9086304
7.766                0.992340727     -16.9377008
7.768                0.992340296     -16.9667629
7.77                 0.992340008     -16.9960396
7.772                0.992339349     -17.0252976
7.774                0.992338322     -17.0545368
7.776                 0.99233693     -17.0837573
7.778                0.992334703     -17.1132049
7.78                 0.992332533     -17.1426354
7.782                0.992330421     -17.1720492
7.784                0.992328372     -17.2014463
7.786                0.992324592     -17.2310475
7.788                0.992321021     -17.2606428
7.79                 0.992317657     -17.2902325
7.792                0.992314502     -17.3198165
7.794                0.992309766      -17.349578
7.796                0.992305009      -17.379339
7.798                0.992300232     -17.4090995
7.8                  0.992295435     -17.4388595
7.802                0.992289698     -17.4688024
7.804                0.992283731     -17.4987354
7.806                0.992277533     -17.5286586
7.808                0.992271104     -17.5585722
7.81                 0.992263718     -17.5887074
7.812                0.992256348      -17.618817
7.814                0.992248991     -17.6489013
7.816                0.992241645     -17.6789606
7.818                0.992232183     -17.7092649
7.82                 0.992223254     -17.7395404
7.822                0.992214855      -17.769787
7.824                 0.99220698     -17.8000047
7.826                0.992196179     -17.8304515
7.828                0.992185961     -17.8608843
7.83                 0.992176325     -17.8913027
7.832                0.992167268     -17.9217067
7.834                0.992156167      -17.952295
7.836                0.992144999     -17.9828835
7.838                0.992133765     -18.0134724
7.84                 0.992122464     -18.0440616
7.842                0.992111089     -18.0748208
7.844                0.992099007     -18.1055756
7.846                0.992086219     -18.1363258
7.848                0.992072724     -18.1670713
7.85                 0.992060053     -18.1980162
7.852                0.992046718     -18.2289404
7.854                0.992032725     -18.2598439
7.856                0.992018077     -18.2907267
7.858                 0.99200338      -18.321838
7.86                 0.991988579     -18.3529237
7.862                0.991973679     -18.3839842
7.864                0.991958686     -18.4150199
7.866                 0.99194227     -18.4462709
7.868                0.991926139     -18.4775086
7.87                 0.991910294     -18.5087334
7.872                0.991894736     -18.5399455
7.874                0.991877514     -18.5713394
7.876                0.991860371     -18.6027325
7.878                0.991843307     -18.6341245
7.88                 0.991826322     -18.6655155
7.882                0.991808814     -18.6970817
7.884                 0.99179087       -18.72864
7.886                0.991772489     -18.7601908
7.888                0.991753671     -18.7917343
7.89                 0.991735239     -18.8234939
7.892                0.991716326     -18.8552209
7.894                0.991696927     -18.8869161
7.896                0.991677038     -18.9185806
7.898                0.991656506     -18.9505286
7.9                  0.991636241     -18.9824266
7.902                0.991616236     -19.0142749
7.904                 0.99159648     -19.0460739
7.906                0.991574106     -19.0781616
7.908                0.991552621     -19.1102123
7.91                 0.991532018     -19.1422258
7.912                0.991512294     -19.1742017
7.914                 0.99148984     -19.2064103
7.916                0.991467742     -19.2386118
7.918                0.991446001      -19.270806
7.92                 0.991424617     -19.3029929
7.922                0.991402959     -19.3353537
7.924                0.991380579     -19.3677132
7.926                0.991357476     -19.4000712
7.928                0.991333652     -19.4324276
7.93                 0.991311594     -19.4649932
7.932                 0.99128857     -19.4975306
7.934                0.991264585     -19.5300397
7.936                0.991239645     -19.5625201
7.938                0.991215589     -19.5952871
7.94                 0.991191428     -19.6280026
7.942                0.991167179     -19.6606677
7.944                0.991142856     -19.6932835
7.946                 0.99111665     -19.7261968
7.948                0.991091356     -19.7590683
7.95                 0.991066985     -19.7918996
7.952                 0.99104355     -19.8246926
7.954                0.991016795     -19.8577363
7.956                0.990990954     -19.8907674
7.958                0.990966028     -19.9237864
7.96                 0.990942021     -19.9567941
7.962                0.990917072     -19.9899958
7.964                0.990891516     -20.0231932
7.966                0.990865352     -20.0563864
7.968                 0.99083858     -20.0895759
7.97                 0.990816495     -20.1230142
7.972                0.990791631     -20.1564043
7.974                0.990763981      -20.189751
7.976                0.990733539     -20.2230593
7.978                0.990711784     -20.2567832
7.98                  0.99068683     -20.2903832
7.982                0.990658639     -20.3238693
7.984                0.990627179     -20.3572518
7.986                0.990601589     -20.3912048
7.988                0.990575193     -20.4250074
7.99                 0.990547936     -20.4586649
7.992                0.990519766     -20.4921832
7.994                0.990491253     -20.5262225
7.996                0.990463727     -20.5601833
7.998                 0.99043717     -20.5940656
8                    0.990411561     -20.6278696
8.002                0.990384148     -20.6619858
8.004                0.990356877      -20.696098
8.006                0.990329749      -20.730206
8.008                0.990302764     -20.7643099
8.01                  0.99027531      -20.798718
8.012                0.990247956     -20.8330604
8.014                0.990220724     -20.8673385
8.016                0.990193636      -20.901554
8.018                0.990159982     -20.9364047
8.02                 0.990130461     -20.9710174
8.022                0.990105221     -21.0054071
8.024                0.990084404      -21.039589
8.026                0.990034919     -21.0748831
8.028                0.990000031     -21.1097581
8.03                 0.989980064     -21.1442671
8.032                0.989975288     -21.1784649
8.034                0.989878229     -21.2141913
8.036                0.989827408      -21.249258
8.038                  0.9898234     -21.2838516
8.04                 0.989866624      -21.318166
8.042                 0.98893446      -21.350904
8.044                0.988628779     -21.3773877
8.046                0.988931479     -21.4094669
8.048                0.989758451     -21.4587399
8.05                 0.988010661     -21.5775116
8.052                0.986847841     -21.6146542
8.054                0.987219623     -21.5997102
8.056                0.989651221     -21.6002082
8.058                0.986995583     -21.5888544
8.06                 0.985905592     -21.6524024
8.062                0.986850784     -21.7240915
8.064                0.989545468     -21.7426155
8.066                0.989042166     -21.7714507
8.068                0.988854116     -21.8052794
8.07                 0.988986455     -21.8435612
8.072                0.989441221     -21.8859618
8.074                0.989259493      -21.920017
8.076                0.989182134     -21.9552916
8.078                0.989208707     -21.9919767
8.08                 0.989338472      -22.030285
8.082                0.989204837       -22.06492
8.084                0.989143961     -22.1005586
8.086                0.989155148     -22.1373908
8.088                0.989237482     -22.1756159
8.09                 0.989111488     -22.2102277
8.092                0.989053826     -22.2459981
8.094                0.989063305     -22.2831741
8.096                0.989138343     -22.3220063
8.098                0.988999344     -22.3559976
8.1                  0.988939051      -22.391598
8.102                0.988954346     -22.4292655
8.104                0.989041378     -22.4694549
8.106                0.988874896     -22.5019672
8.108                0.988812327      -22.536729
8.11                 0.988841435     -22.5750216
8.112                0.988946532     -22.6180188
8.114                0.988936032     -22.6589574
8.116                0.988929002     -22.6968206
8.118                0.988909933     -22.7329321
8.12                 0.988854171     -22.7677411
8.122                 0.98906067     -22.8359627
8.124                0.988990706     -22.8855114
8.126                0.988829055     -22.9129345
8.128                0.988764124     -22.9186176
8.13                 0.988717057     -22.9626321
8.132                0.988676808     -23.0022813
8.134                0.988658884      -23.038089
8.136                0.988676805     -23.0707128
8.138                0.988645506     -23.1097702
8.14                 0.988620478     -23.1482987
8.142                0.988602465     -23.1863693
8.144                0.988592119     -23.2240555
8.146                0.988570587        -23.2628
8.148                0.988549743     -23.3014831
8.15                 0.988529626     -23.3401114
8.152                0.988510271     -23.3786917
8.154                 0.98849082     -23.4176957
8.156                0.988471144     -23.4566934
8.158                0.988451245     -23.4956848
8.16                 0.988431121     -23.5346703
8.162                0.988410915     -23.5740224
8.164                0.988391447     -23.6133622
8.166                0.988372719     -23.6526896
8.168                0.988354731     -23.6920045
8.17                 0.988333117     -23.7317304
8.172                0.988313622     -23.7714335
8.174                0.988296247      -23.811113
8.176                0.988280992     -23.8507678
8.178                 0.98825894     -23.8908604
8.18                 0.988239748     -23.9309264
8.182                0.988223418     -23.9709643
8.184                0.988209952     -24.0109724
8.186                0.988189303     -24.0514299
8.188                0.988170992      -24.091865
8.19                 0.988155022     -24.1322764
8.192                0.988141395     -24.1726632
8.194                0.988123706     -24.2134928
8.196                0.988106819     -24.2543087
8.198                0.988090735     -24.2951108
8.2                  0.988075455     -24.3358989