! TOUCHSTONE file generated by CST DESIGN STUDIO
! Date and time: Mon Feb 10 16:44:19 2025
! Project name: C:\Work\MatlabApps\UnitCellType2OptimizationMatlab\CST\unitcell.cst
! Tree item: Tasks\Sweep1\SPara1\S-Parameters
! Header version: 2024
! Port assignment regex: !\s*Touchstone port\s*([0-9]+)\s*=\s*(CST MWS port|CST DES external port|CST DES block port)\s*(.+)\s* \(\"(.*)\"\)(\s*mode\s*([0-9]+))?.*
! Touchstone port assignment:
! Touchstone port 1 = CST DES external port 1 ("")
# GHz S MA R 50
7                    0.987877173     -6.00231938
7.002                0.987930736     -6.03314901
7.004                0.987984723     -6.06388687
7.006                0.988039126      -6.0945338
7.008                0.988093939     -6.12509058
7.01                  0.98814517     -6.15564307
7.012                0.988195957     -6.18612795
7.014                0.988246307     -6.21654576
7.016                0.988296225     -6.24689702
7.018                0.988344783     -6.27723571
7.02                 0.988392277     -6.30749021
7.022                0.988438722     -6.33766112
7.024                0.988484132     -6.36774902
7.026                0.988528353     -6.39790347
7.028                0.988572083     -6.42794227
7.03                 0.988615335     -6.45786665
7.032                0.988658119     -6.48767783
7.034                0.988697365       -6.517605
7.036                0.988737174     -6.54741546
7.038                0.988777544     -6.57711086
7.04                 0.988818474     -6.60669284
7.042                0.988854023     -6.63634492
7.044                0.988890353     -6.66591266
7.046                0.988927456     -6.69539712
7.048                0.988965324     -6.72479936
7.05                 0.988998908     -6.75418208
7.052                0.989032407     -6.78350855
7.054                0.989065823     -6.81277922
7.056                0.989099156     -6.84199453
7.058                0.989130935     -6.87115941
7.06                 0.989161714     -6.90026411
7.062                0.989191504     -6.92930935
7.064                0.989220318     -6.95829585
7.066                0.989248952      -6.9872691
7.068                 0.98927667     -7.01615879
7.07                 0.989303479     -7.04496609
7.072                 0.98932939     -7.07369214
7.074                0.989353768     -7.10245624
7.076                0.989378112     -7.13112862
7.078                 0.98940242     -7.15971022
7.08                  0.98942669     -7.18820198
7.082                0.989447599     -7.21671283
7.084                0.989468962     -7.24515314
7.086                 0.98949077     -7.27352347
7.088                0.989513019     -7.30182434
7.09                 0.989532052     -7.33007946
7.092                 0.98955103     -7.35828939
7.094                0.989569954     -7.38645446
7.096                0.989588825     -7.41457501
7.098                0.989606367     -7.44262062
7.1                  0.989623154      -7.4706185
7.102                0.989639194      -7.4985689
7.104                0.989654496      -7.5264721
7.106                0.989669447     -7.55434259
7.108                0.989683766     -7.58214125
7.11                 0.989697463     -7.60986866
7.112                0.989710547     -7.63752539
7.114                0.989721993     -7.66520169
7.116                0.989733597     -7.69279608
7.118                0.989745362     -7.72030955
7.12                  0.98975729      -7.7477431
7.122                0.989765885     -7.77518549
7.124                0.989775072     -7.80256462
7.126                0.989784847     -7.82988129
7.128                0.989795205     -7.85713633
7.13                 0.989802437     -7.88433279
7.132                0.989809797     -7.91149066
7.134                0.989817285     -7.93861026
7.136                  0.9898249     -7.96569189
7.138                0.989831373     -7.99268233
7.14                 0.989837175     -8.01963715
7.142                0.989842311      -8.0465567
7.144                0.989846788     -8.07344136
7.146                0.989851757     -8.10025415
7.148                0.989855868     -8.12701303
7.15                 0.989859127     -8.15371875
7.152                0.989861542     -8.18037207
7.154                0.989863979     -8.20700536
7.156                0.989866175     -8.23357106
7.158                0.989868129      -8.2600699
7.16                 0.989869841      -8.2865026
7.162                0.989869942     -8.31292419
7.164                 0.98987039     -8.33928893
7.166                0.989871178      -8.3655972
7.168                0.989872303      -8.3918494
7.17                 0.989871397     -8.41804601
7.172                0.989870624      -8.4442092
7.174                0.989869984      -8.4703392
7.176                0.989869475     -8.49643623
7.178                  0.9898684     -8.52243787
7.18                  0.98986679     -8.54841311
7.182                0.989864649     -8.57436208
7.184                0.989861981     -8.60028492
7.186                 0.98986012     -8.62612943
7.188                0.989857535      -8.6519315
7.19                 0.989854235     -8.67769132
7.192                0.989850226     -8.70340914
7.194                0.989846626     -8.72910057
7.196                0.989842826     -8.75473533
7.198                0.989838828     -8.78031399
7.2                  0.989834639     -8.80583713
7.202                0.989829402     -8.83134299
7.204                0.989824485     -8.85680036
7.206                0.989819886     -8.88220987
7.208                0.989815606     -8.90757212
7.21                 0.989809865     -8.93288215
7.212                0.989804298     -8.95816379
7.214                0.989798903     -8.98341732
7.216                0.989793681     -9.00864298
7.218                0.989788264     -9.03377822
7.22                 0.989782398     -9.05889234
7.222                0.989776085     -9.08398552
7.224                0.989769329     -9.10905793
7.226                0.989763938     -9.13405271
7.228                0.989757774     -9.15901318
7.23                 0.989750841      -9.1839398
7.232                0.989743145     -9.20883307
7.234                0.989736894     -9.23369752
7.236                 0.98973026     -9.25851148
7.238                0.989723245     -9.28327554
7.24                 0.989715849     -9.30799026
7.242                0.989708504     -9.33270176
7.244                 0.98970138     -9.35736514
7.246                0.989694474     -9.38198072
7.248                0.989687781     -9.40654882
7.25                 0.989680398      -9.4310918
7.252                0.989673255     -9.45560613
7.254                0.989666348     -9.48009197
7.256                0.989659676     -9.50454949
7.258                0.989653246     -9.52894047
7.26                 0.989646478      -9.5533156
7.262                0.989639376     -9.57767496
7.264                 0.98963194     -9.60201864
7.266                0.989626278     -9.62629648
7.268                0.989619889     -9.65054995
7.27                 0.989612776     -9.67477911
7.272                0.989604948       -9.698984
7.274                0.989599171     -9.72316666
7.276                0.989592938     -9.74730984
7.278                0.989586255     -9.77141383
7.28                 0.989579127      -9.7954789
7.282                0.989572962     -9.81955126
7.284                0.989566867     -9.84358462
7.286                0.989560843     -9.86757946
7.288                0.989554892     -9.89153622
7.29                 0.989549034     -9.91548147
7.292                0.989543344     -9.93940309
7.294                0.989537821     -9.96330135
7.296                0.989532466      -9.9871765
7.298                0.989527761     -10.0110142
7.3                  0.989522802     -10.0348383
7.302                 0.98951759      -10.058649
7.304                0.989512127     -10.0824462
7.306                0.989508651      -10.106205
7.308                0.989504548     -10.1299422
7.31                 0.989499824     -10.1536582
7.312                0.989494482     -10.1773532
7.314                 0.98949142      -10.201055
7.316                0.989487935     -10.2247191
7.318                0.989484029     -10.2483459
7.32                 0.989479702     -10.2719357
7.322                0.989476626     -10.2955737
7.324                0.989473688       -10.31917
7.326                0.989470886     -10.3427248
7.328                0.989468218     -10.3662382
7.33                 0.989465726      -10.389791
7.332                0.989463561     -10.4133162
7.334                0.989461723     -10.4368142
7.336                0.989460208      -10.460285
7.338                0.989459368     -10.4837616
7.34                 0.989458405     -10.5072262
7.342                0.989457321     -10.5306789
7.344                0.989456115     -10.5541197
7.346                0.989456996     -10.5775566
7.348                0.989457242     -10.6009794
7.35                 0.989456854      -10.624388
7.352                0.989455839     -10.6477824
7.354                 0.98945765     -10.6712062
7.356                0.989458871     -10.6946018
7.358                0.989459505     -10.7179692
7.36                 0.989459559     -10.7413085
7.362                0.989461723     -10.7647128
7.364                0.989463768     -10.7880838
7.366                0.989465696     -10.8114218
7.368                0.989467511     -10.8347272
7.37                  0.98947031      -10.858096
7.372                0.989473265     -10.8814423
7.374                0.989476376     -10.9047663
7.376                0.989479644     -10.9280684
7.378                0.989483831     -10.9514114
7.38                 0.989487955     -10.9747438
7.382                0.989492015     -10.9980655
7.384                0.989496013     -11.0213767
7.386                0.989501854     -11.0447196
7.388                 0.98950727     -11.0680491
7.39                 0.989512264     -11.0913652
7.392                0.989516838     -11.1146683
7.394                0.989523736     -11.1380384
7.396                0.989530255     -11.1613806
7.398                0.989536398     -11.1846954
7.4                  0.989542167      -11.207983
7.402                0.989549489     -11.2313806
7.404                0.989556914     -11.2547419
7.406                0.989564438     -11.2780673
7.408                0.989572059     -11.3013569
7.41                 0.989580064     -11.3247655
7.412                0.989588481     -11.3481466
7.414                0.989597307     -11.3715005
7.416                0.989606538     -11.3948272
7.418                0.989616155     -11.4182456
7.42                 0.989625875     -11.4416522
7.422                0.989635699     -11.4650473
7.424                0.989645625     -11.4884309
7.426                0.989657214     -11.5118859
7.428                0.989668332     -11.5353321
7.43                 0.989678984     -11.5587696
7.432                0.989689171     -11.5821982
7.434                0.989702067      -11.605724
7.436                0.989714334     -11.6292291
7.438                0.989725976     -11.6527133
7.44                 0.989736998     -11.6761768
7.442                0.989750355     -11.6997739
7.444                0.989763454     -11.7233413
7.446                  0.9897763     -11.7468792
7.448                0.989788896     -11.7703878
7.45                 0.989802642     -11.7940417
7.452                0.989816522     -11.8176721
7.454                0.989830537     -11.8412793
7.456                0.989844687     -11.8648637
7.458                0.989859403     -11.8885692
7.46                 0.989874223      -11.912264
7.462                0.989889146      -11.935948
7.464                0.989904173     -11.9596213
7.466                0.989920227     -11.9834016
7.468                0.989936072     -12.0071733
7.47                 0.989951711     -12.0309366
7.472                0.989967144     -12.0546915
7.474                0.989984153     -12.0785736
7.476                0.990000874     -12.1024358
7.478                0.990017308     -12.1262785
7.48                 0.990033455     -12.1501018
7.482                0.990050734     -12.1740895
7.484                0.990068094     -12.1980462
7.486                0.990085534     -12.2219723
7.488                0.990103052     -12.2458679
7.49                 0.990120495     -12.2699488
7.492                0.990138408     -12.2940022
7.494                0.990156787     -12.3180284
7.496                0.990175629     -12.3420274
7.498                0.990194008     -12.3661883
7.5                  0.990212705     -12.3903363
7.502                0.990231718     -12.4144714
7.504                0.990251046     -12.4385938
7.506                0.990270938     -12.4628548
7.508                0.990290568     -12.4871098
7.51                 0.990309938     -12.5113589
7.512                0.990329048     -12.5356021
7.514                0.990349993     -12.5599942
7.516                0.990370333     -12.5843713
7.518                0.990390073     -12.6087332
7.52                 0.990409216       -12.63308
7.522                0.990430298     -12.6576085
7.524                0.990451009     -12.6821103
7.526                0.990471352     -12.7065855
7.528                 0.99049133     -12.7310342
7.53                 0.990512137      -12.755687
7.532                0.990533022     -12.7803148
7.534                0.990553987     -12.8049178
7.536                0.990575034     -12.8294963
7.538                0.990595941     -12.8542592
7.54                  0.99061707     -12.8790094
7.542                0.990638419     -12.9037471
7.544                0.990659988     -12.9284724
7.546                0.990681499     -12.9533588
7.548                0.990702995     -12.9782392
7.55                 0.990724477     -13.0031138
7.552                0.990745946     -13.0279826
7.554                0.990767875     -13.0530182
7.556                0.990789609     -13.0780405
7.558                 0.99081115     -13.1030496
7.56                 0.990832499     -13.1280457
7.562                0.990854178     -13.1532383
7.564                0.990875904      -13.178405
7.566                0.990897678     -13.2035461
7.568                0.990919497     -13.2286619
7.57                 0.990940534     -13.2540012
7.572                0.990962053     -13.2793132
7.574                0.990984049     -13.3045979
7.576                 0.99100652     -13.3298554
7.578                0.991027479     -13.3553228
7.58                 0.991048937     -13.3807752
7.582                0.991070892     -13.4062125
7.584                0.991093341     -13.4316348
7.586                0.991114959     -13.4572371
7.588                 0.99113654     -13.4828347
7.59                 0.991158086     -13.5084277
7.592                0.991179597     -13.5340161
7.594                0.991201737     -13.5597791
7.596                0.991223335     -13.5855323
7.598                0.991244393     -13.6112755
7.6                  0.991264916     -13.6370088
7.602                 0.99128665     -13.6629457
7.604                0.991307896     -13.6888595
7.606                 0.99132866     -13.7147504
7.608                0.991348944     -13.7406182
7.61                 0.991369579     -13.7667143
7.612                 0.99139018     -13.7927843
7.614                 0.99141075     -13.8188284
7.616                0.991431293      -13.844847
7.618                0.991451017      -13.871083
7.62                 0.991471003     -13.8973036
7.622                0.991491249     -13.9235091
7.624                0.991511758     -13.9496998
7.626                0.991531107     -13.9760792
7.628                 0.99155059     -14.0024537
7.63                 0.991570205     -14.0288232
7.632                0.991589952     -14.0551878
7.634                0.991609046     -14.0817268
7.636                0.991628022     -14.1082576
7.638                 0.99164688     -14.1347802
7.64                 0.991665621     -14.1612949
7.642                0.991683879     -14.1880122
7.644                0.991702119     -14.2147083
7.646                0.991720339     -14.2413832
7.648                 0.99173854     -14.2680373
7.65                 0.991755382       -14.29492
7.652                0.991772654     -14.3217749
7.654                0.991790352     -14.3486019
7.656                0.991808473     -14.3754012
7.658                0.991824211     -14.4024294
7.66                 0.991840581     -14.4294391
7.662                0.991857582       -14.45643
7.664                0.991875211     -14.4834022
7.666                 0.99189073     -14.5105696
7.668                0.991906447     -14.5377322
7.67                  0.99192236       -14.56489
7.672                 0.99193847      -14.592043
7.674                 0.99195404     -14.6193677
7.676                0.991969156     -14.6466876
7.678                 0.99198382     -14.6740026
7.68                 0.991998034     -14.7013128
7.682                0.992012854     -14.7288161
7.684                0.992027054     -14.7563013
7.686                0.992040637     -14.7837682
7.688                0.992053607     -14.8112168
7.69                 0.992066751     -14.8388921
7.692                0.992079675     -14.8665411
7.694                0.992092384     -14.8941641
7.696                0.992104881     -14.9217612
7.698                0.992116282     -14.9495795
7.7                  0.992127896     -14.9773792
7.702                0.992139725     -15.0051608
7.704                0.992151769     -15.0329244
7.706                 0.99216201     -15.0608793
7.708                0.992172472     -15.0888287
7.71                 0.992183155     -15.1167728
7.712                 0.99219406     -15.1447116
7.714                0.992203513     -15.1728182
7.716                0.992212894     -15.2009206
7.718                0.992222205     -15.2290189
7.72                 0.992231443     -15.2571132
7.722                0.992239771     -15.2853906
7.724                0.992247966     -15.3136505
7.726                0.992256029     -15.3418932
7.728                0.992263958      -15.370119
7.73                 0.992270379     -15.3985663
7.732                0.992277096     -15.4269838
7.734                0.992284103     -15.4553716
7.736                0.992291398       -15.48373
7.738                0.992295903     -15.5123175
7.74                  0.99230112     -15.5408798
7.742                0.992307047     -15.5694169
7.744                0.992313679     -15.5979287
7.746                0.992317279     -15.6266406
7.748                0.992321329     -15.6553445
7.75                  0.99232583     -15.6840401
7.752                 0.99233078     -15.7127276
7.754                 0.99233422     -15.7415721
7.756                0.992337334     -15.7704159
7.758                0.992340122     -15.7992588
7.76                 0.992342585     -15.8281009
7.762                 0.99234533       -15.85711
7.764                0.992347298     -15.8861067
7.766                0.992348492     -15.9150907
7.768                0.992348914     -15.9440619
7.77                 0.992349886     -15.9732337
7.772                0.992350362     -16.0023793
7.774                0.992350349     -16.0314988
7.776                0.992349849     -16.0605921
7.778                0.992348608     -16.0899007
7.78                  0.99234744     -16.1191861
7.782                0.992346349     -16.1484486
7.784                0.992345337     -16.1776885
7.786                0.992342422     -16.2071127
7.788                0.992339778     -16.2365289
7.79                 0.992337404     -16.2659372
7.792                  0.9923353     -16.2953377
7.794                0.992331497     -16.3248876
7.796                 0.99232766     -16.3544362
7.798                 0.99232379     -16.3839835
7.8                  0.992319887     -16.4135296
7.802                0.992315149     -16.4432334
7.804                0.992310104     -16.4729231
7.806                0.992304753     -16.5025991
7.808                0.992299095     -16.5322617
7.81                 0.992292557     -16.5621317
7.812                0.992286047     -16.5919675
7.814                0.992279561     -16.6217695
7.816                0.992273093     -16.6515381
7.818                0.992264222      -16.681545
7.82                 0.992256062     -16.7115143
7.822                0.992248607     -16.7414459
7.824                0.992241853     -16.7713398
7.826                 0.99223163     -16.8014494
7.828                0.992222179     -16.8315408
7.83                 0.992213496     -16.8616141
7.832                 0.99220558     -16.8916689
7.834                0.992195388     -16.9218816
7.836                0.992185106     -16.9520946
7.838                0.992174735     -16.9823077
7.84                 0.992164275      -17.012521
7.842                 0.99215413     -17.0428759
7.844                0.992143057     -17.0732239
7.846                0.992131057     -17.1035649
7.848                0.992118132     -17.1338985
7.85                 0.992106686     -17.1644141
7.852                0.992094379     -17.1949016
7.854                0.992081216      -17.225361
7.856                0.992067203     -17.2557922
7.858                0.992053505      -17.286443
7.86                 0.992039683     -17.3170602
7.862                0.992025744     -17.3476442
7.864                0.992011694     -17.3781956
7.866                0.991996152     -17.4089473
7.868                0.991980992     -17.4396821
7.87                 0.991966214     -17.4704004
7.872                0.991951821     -17.5011028
7.874                0.991935632     -17.5319598
7.876                0.991919551      -17.562816
7.878                0.991903577     -17.5936712
7.88                 0.991887711     -17.6245255
7.882                0.991871536     -17.6555266
7.884                0.991854797     -17.6865172
7.886                0.991837495     -17.7174977
7.888                 0.99181963     -17.7484685
7.89                 0.991802614     -17.7796425
7.892                0.991784988     -17.8107736
7.894                0.991766746      -17.841863
7.896                0.991747883      -17.872912
7.898                0.991728499     -17.9042491
7.9                  0.991709492     -17.9355218
7.902                 0.99169085     -17.9667305
7.904                 0.99167256     -17.9978759
7.906                0.991651154      -18.029314
7.908                0.991630929     -18.0607058
7.91                 0.991611877     -18.0920509
7.912                0.991593991     -18.1233489
7.914                0.991572867     -18.1548642
7.916                0.991552217     -18.1863713
7.918                0.991532042     -18.2178702
7.92                 0.991512341     -18.2493607
7.922                0.991492613     -18.2809971
7.924                0.991471953     -18.3126315
7.926                0.991450361     -18.3442638
7.928                0.991427839     -18.3758937
7.93                 0.991407912     -18.4077169
7.932                0.991386747      -18.439503
7.934                0.991364354     -18.4712516
7.936                0.991340741     -18.5029627
7.938                0.991318524     -18.5349648
7.94                 0.991296203      -18.566901
7.942                0.991273797     -18.5987726
7.944                0.991251324     -18.6305809
7.946                0.991226632     -18.6626927
7.948                0.991203151     -18.6947525
7.95                 0.991180895     -18.7267626
7.952                0.991159876     -18.7587254
7.954                0.991134781     -18.7909246
7.956                0.991110885     -18.8231098
7.958                0.991088191     -18.8552819
7.96                 0.991066701     -18.8874417
7.962                0.991044223     -18.9197688
7.964                0.991020971     -18.9520906
7.966                0.990996942     -18.9844074
7.968                0.990972139     -19.0167196
7.97                 0.990953595     -19.0492763
7.972                0.990931483     -19.0817678
7.974                0.990905795     -19.1142005
7.976                0.990876523     -19.1465809
7.978                0.990858592     -19.1794263
7.98                 0.990836585     -19.2121083
7.982                0.990810454       -19.24464
7.984                0.990780153     -19.2770345
7.986                0.990757466     -19.3100876
7.988                0.990733812     -19.3429465
7.99                 0.990709117     -19.3756186
7.992                0.990683314      -19.408111
7.994                0.990657099     -19.4411878
7.996                0.990632202     -19.4741661
7.998                0.990608597     -19.5070462
8                    0.990586259     -19.5398283
8.002                0.990561705     -19.5729232
8.004                0.990537345     -19.6060147
8.006                 0.99051318     -19.6391029
8.008                 0.99048921     -19.6721876
8.01                 0.990464732     -19.7055724
8.012                 0.99044042     -19.7388744
8.014                0.990416302     -19.7720957
8.016                0.990392406     -19.8052384
8.018                0.990359994     -19.8390993
8.02                 0.990333016     -19.8726616
8.022                0.990311652     -19.9059451
8.024                0.990296073     -19.9389699
8.026                0.990243343     -19.9732895
8.028                0.990209579     -20.0070932
8.03                 0.990195165     -20.0404501
8.032                 0.99020041     -20.0734313
8.034                0.990086599     -20.1081504
8.036                0.990032511     -20.1420909
8.038                 0.99003876     -20.1754937
8.04                 0.990105763     -20.2086089
8.042                 0.98892151     -20.2382412
8.044                0.988544101     -20.2607414
8.046                0.988945476     -20.2912331
8.048                0.990012103     -20.3445472
8.05                 0.987751964     -20.4832629
8.052                0.986276054     -20.5184133
8.054                0.986779979     -20.4885933
8.056                 0.98991994     -20.4812692
8.058                0.986544318     -20.4520352
8.06                 0.985149966     -20.5211664
8.062                0.986361827      -20.602821
8.064                0.989829869     -20.6188281
8.066                 0.98919986     -20.6437756
8.068                0.988971457     -20.6755763
8.07                 0.989151353     -20.7135251
8.072                 0.98974185     -20.7572106
8.074                0.989521635     -20.7892031
8.076                0.989434437     -20.8229105
8.078                0.989479543     -20.8585733
8.08                 0.989655809     -20.8964632
8.082                0.989497091     -20.9291704
8.084                0.989430951     -20.9632693
8.086                 0.98945637     -20.9989999
8.088                0.989572018     -21.0366151
8.09                 0.989423296     -21.0692042
8.092                0.989361349     -21.1033756
8.094                  0.9893845      -21.139441
8.096                0.989490557     -21.1777172
8.098                0.989325708     -21.2093978
8.1                  0.989260597     -21.2432491
8.102                0.989290997      -21.279849
8.104                0.989411724     -21.3197702
8.106                0.989212695     -21.3494241
8.108                0.989145167      -21.382101
8.11                 0.989192944     -21.4194122
8.112                0.989335421     -21.4628272
8.114                0.989331567     -21.5033325
8.116                0.989333466     -21.5399307
8.118                0.989320804     -21.5742856
8.12                 0.989262018     -21.6069338
8.122                0.989522141     -21.6823266
8.124                0.989438881     -21.7335578
8.126                0.989248895     -21.7565567
8.128                0.989191279     -21.7520827
8.13                 0.989139677     -21.7962147
8.132                0.989098664     -21.8348117
8.134                 0.98908769     -21.8685659
8.136                0.989123636     -21.8983346
8.138                0.989094294     -21.9360773
8.14                 0.989073149     -21.9731611
8.142                0.989061106     -22.0096775
8.144                0.989058956     -22.0457212
8.146                0.989042184     -22.0829634
8.148                0.989026307     -22.1201324
8.15                 0.989011371     -22.1572366
8.152                0.988997418     -22.1942847
8.154                0.988983216     -22.2317385
8.156                0.988968726     -22.2691877
8.158                0.988953948     -22.3066325
8.16                 0.988938883      -22.344073
8.162                0.988923602     -22.3818455
8.164                0.988909254     -22.4196074
8.166                 0.98889584     -22.4573584
8.168                0.988883361     -22.4950985
8.17                 0.988866175     -22.5332156
8.172                0.988851673      -22.571311
8.174                0.988839858     -22.6093834
8.176                0.988830727     -22.6474318
8.178                0.988812861     -22.6858847
8.18                 0.988798614     -22.7243125
8.182                0.988787987     -22.7627131
8.184                0.988780982     -22.8010843
8.186                0.988764772     -22.8398701
8.188                0.988751516     -22.8786351
8.19                 0.988741216      -22.917378
8.192                0.988733873     -22.9560975
8.194                0.988721274     -22.9952223
8.196                0.988709679     -23.0343354
8.198                0.988699091     -23.0734366
8.2                  0.988689513     -23.1125259