! TOUCHSTONE file generated by CST DESIGN STUDIO
! Date and time: Mon Feb 10 16:44:05 2025
! Project name: C:\Work\MatlabApps\UnitCellType2OptimizationMatlab\CST\unitcell.cst
! Tree item: Tasks\Sweep1\SPara1\S-Parameters
! Header version: 2024
! Port assignment regex: !\s*Touchstone port\s*([0-9]+)\s*=\s*(CST MWS port|CST DES external port|CST DES block port)\s*(.+)\s* \(\"(.*)\"\)(\s*mode\s*([0-9]+))?.*
! Touchstone port assignment:
! Touchstone port 1 = CST DES external port 1 ("")
# GHz S MA R 50
7                    0.996348472     -14.1132222
7.002                0.996359465     -14.1329471
7.004                0.996370462      -14.152716
7.006                0.996381458      -14.172529
7.008                0.996392448     -14.1923861
7.01                 0.996403428     -14.2122875
7.012                0.996414392     -14.2322332
7.014                0.996425336     -14.2522233
7.016                0.996436254     -14.2722577
7.018                0.996447142     -14.2923367
7.02                 0.996457994     -14.3124603
7.022                0.996468806     -14.3326284
7.024                0.996479573     -14.3528411
7.026                 0.99649029     -14.3730986
7.028                0.996500951     -14.3934007
7.03                 0.996511553     -14.4137476
7.032                 0.99652209     -14.4341392
7.034                0.996532558     -14.4545756
7.036                0.996542952     -14.4750569
7.038                0.996553266     -14.4955829
7.04                 0.996563496     -14.5161538
7.042                0.996573638     -14.5367695
7.044                0.996583687       -14.55743
7.046                0.996593637     -14.5781354
7.048                0.996603485     -14.5988856
7.05                 0.996613226     -14.6196806
7.052                0.996622855     -14.6405204
7.054                0.996632367      -14.661405
7.056                0.996641758     -14.6823343
7.058                0.996651025     -14.7033084
7.06                 0.996660161     -14.7243271
7.062                0.996669163     -14.7453905
7.064                0.996678026     -14.7664985
7.066                0.996686746     -14.7876511
7.068                0.996695319     -14.8088483
7.07                 0.996703741     -14.8300899
7.072                0.996712006     -14.8513759
7.074                0.996720112     -14.8727063
7.076                0.996728054      -14.894081
7.078                0.996735828        -14.9155
7.08                  0.99674343     -14.9369632
7.082                0.996750855     -14.9584704
7.084                0.996758101     -14.9800217
7.086                0.996765162      -15.001617
7.088                0.996772036     -15.0232561
7.09                 0.996778719      -15.044939
7.092                0.996785207     -15.0666657
7.094                0.996791495     -15.0884359
7.096                0.996797581     -15.1102497
7.098                0.996803462      -15.132107
7.1                  0.996809132     -15.1540075
7.102                 0.99681459     -15.1759513
7.104                0.996819832     -15.1979383
7.106                0.996824854     -15.2199682
7.108                0.996829653     -15.2420411
7.11                 0.996834227     -15.2641568
7.112                0.996838571     -15.2863152
7.114                0.996842683     -15.3085162
7.116                 0.99684656     -15.3307597
7.118                0.996850199     -15.3530455
7.12                 0.996853597     -15.3753735
7.122                0.996856751     -15.3977436
7.124                0.996859659     -15.4201557
7.126                0.996862317     -15.4426096
7.128                0.996864724     -15.4651053
7.13                 0.996866876     -15.4876426
7.132                0.996868772     -15.5102213
7.134                0.996870408     -15.5328413
7.136                0.996871783     -15.5555025
7.138                0.996872894     -15.5782047
7.14                  0.99687374     -15.6009479
7.142                0.996874317     -15.6237318
7.144                0.996874624     -15.6465564
7.146                0.996874659     -15.6694214
7.148                 0.99687442     -15.6923268
7.15                 0.996873906     -15.7152724
7.152                0.996873113      -15.738258
7.154                0.996872042     -15.7612835
7.156                 0.99687069     -15.7843488
7.158                0.996869055     -15.8074536
7.16                 0.996867137      -15.830598
7.162                0.996864933     -15.8537816
7.164                0.996862443     -15.8770044
7.166                0.996859665     -15.9002662
7.168                0.996856598     -15.9235668
7.17                 0.996853241     -15.9469062
7.172                0.996849593      -15.970284
7.174                0.996845654     -15.9937003
7.176                0.996841421     -16.0171549
7.178                0.996836894     -16.0406475
7.18                 0.996832074     -16.0641781
7.182                0.996826958     -16.0877464
7.184                0.996821546     -16.1113524
7.186                0.996815839     -16.1349959
7.188                0.996809835     -16.1586767
7.19                 0.996803534     -16.1823947
7.192                0.996796937     -16.2061497
7.194                0.996790042     -16.2299417
7.196                0.996782849     -16.2537703
7.198                0.996775359     -16.2776355
7.2                  0.996767572     -16.3015372
7.202                0.996759487     -16.3254751
7.204                0.996751105     -16.3494492
7.206                0.996742426     -16.3734593
7.208                0.996733451     -16.3975053
7.21                  0.99672418      -16.421587
7.212                0.996714612     -16.4457042
7.214                 0.99670475     -16.4698568
7.216                0.996694593     -16.4940448
7.218                0.996684142     -16.5182679
7.22                 0.996673398      -16.542526
7.222                0.996662362      -16.566819
7.224                0.996651034     -16.5911467
7.226                0.996639416     -16.6155091
7.228                0.996627509     -16.6399059
7.23                 0.996615313     -16.6643371
7.232                 0.99660283     -16.6888025
7.234                0.996590062      -16.713302
7.236                0.996577009     -16.7378355
7.238                0.996563672     -16.7624029
7.24                 0.996550054      -16.787004
7.242                0.996536156     -16.8116387
7.244                0.996521979      -16.836307
7.246                0.996507526     -16.8610086
7.248                0.996492797     -16.8857435
7.25                 0.996477794     -16.9105116
7.252                 0.99646252     -16.9353128
7.254                0.996446976      -16.960147
7.256                0.996431165      -16.985014
7.258                0.996415087     -17.0099138
7.26                 0.996398747     -17.0348463
7.262                0.996382144     -17.0598114
7.264                0.996365283      -17.084809
7.266                0.996348164      -17.109839
7.268                0.996330791     -17.1349014
7.27                 0.996313166      -17.159996
7.272                 0.99629529     -17.1851228
7.274                0.996277168     -17.2102817
7.276                0.996258801     -17.2354726
7.278                0.996240191     -17.2606955
7.28                 0.996221342     -17.2859502
7.282                0.996202257     -17.3112369
7.284                0.996182937     -17.3365553
7.286                0.996163387     -17.3619054
7.288                0.996143608     -17.3872872
7.29                 0.996123604     -17.4127007
7.292                0.996103377     -17.4381457
7.294                0.996082932     -17.4636223
7.296                 0.99606227     -17.4891304
7.298                0.996041394       -17.51467
7.3                  0.996020309      -17.540241
7.302                0.995999018     -17.5658434
7.304                0.995977523     -17.5914773
7.306                0.995955827     -17.6171425
7.308                0.995933935     -17.6428391
7.31                  0.99591185     -17.6685671
7.312                0.995889574     -17.6943264
7.314                0.995867112     -17.7201171
7.316                0.995844467     -17.7459391
7.318                0.995821642     -17.7717925
7.32                 0.995798642     -17.7976773
7.322                0.995775469     -17.8235935
7.324                0.995752128      -17.849541
7.326                0.995728622       -17.87552
7.328                0.995704954     -17.9015305
7.33                 0.995681129     -17.9275725
7.332                0.995657151      -17.953646
7.334                0.995633022      -17.979751
7.336                0.995608747     -18.0058877
7.338                0.995584331      -18.032056
7.34                 0.995559775     -18.0582561
7.342                0.995535086     -18.0844879
7.344                0.995510266     -18.1107516
7.346                0.995485319     -18.1370472
7.348                 0.99546025     -18.1633748
7.35                 0.995435063     -18.1897344
7.352                0.995409761     -18.2161262
7.354                0.995384348     -18.2425502
7.356                 0.99535883     -18.2690066
7.358                0.995333208     -18.2954953
7.36                 0.995307489     -18.3220166
7.362                0.995281675     -18.3485705
7.364                0.995255772     -18.3751571
7.366                0.995229782     -18.4017766
7.368                0.995203711      -18.428429
7.37                 0.995177562     -18.4551145
7.372                 0.99515134     -18.4818333
7.374                0.995125048     -18.5085854
7.376                0.995098691      -18.535371
7.378                0.995072274     -18.5621903
7.38                 0.995045799     -18.5890433
7.382                0.995019272     -18.6159303
7.384                0.994992696     -18.6428514
7.386                0.994966076     -18.6698068
7.388                0.994939416     -18.6967966
7.39                  0.99491272      -18.723821
7.392                0.994885993     -18.7508802
7.394                0.994859237     -18.7779744
7.396                0.994832458     -18.8051037
7.398                 0.99480566     -18.8322684
7.4                  0.994778847     -18.8594686
7.402                0.994752023     -18.8867046
7.404                0.994725191     -18.9139766
7.406                0.994698357     -18.9412848
7.408                0.994671524     -18.9686293
7.41                 0.994644697     -18.9960105
7.412                0.994617879     -19.0234285
7.414                0.994591074     -19.0508836
7.416                0.994564287      -19.078376
7.418                0.994537521      -19.105906
7.42                  0.99451078     -19.1334738
7.422                0.994484069     -19.1610797
7.424                0.994457391     -19.1887239
7.426                0.994430751     -19.2164066
7.428                0.994404151     -19.2441282
7.43                 0.994377597      -19.271889
7.432                0.994351091     -19.2996891
7.434                0.994324638     -19.3275289
7.436                0.994298241     -19.3554087
7.438                0.994271904     -19.3833288
7.44                 0.994245631     -19.4112893
7.442                0.994219426     -19.4392908
7.444                0.994193292     -19.4673334
7.446                0.994167232     -19.4954175
7.448                 0.99414125     -19.5235433
7.45                 0.994115351     -19.5517113
7.452                0.994089536     -19.5799217
7.454                0.994063811     -19.6081748
7.456                0.994038177      -19.636471
7.458                0.994012639     -19.6648107
7.46                   0.9939872     -19.6931941
7.462                0.993961862     -19.7216216
7.464                 0.99393663     -19.7500935
7.466                0.993911507     -19.7786103
7.468                0.993886495     -19.8071722
7.47                 0.993861597     -19.8357797
7.472                0.993836818     -19.8644331
7.474                0.993812159     -19.8931327
7.476                0.993787623      -19.921879
7.478                0.993763215     -19.9506723
7.48                 0.993738935      -19.979513
7.482                0.993714787     -20.0084015
7.484                0.993690775     -20.0373382
7.486                0.993666899     -20.0663235
7.488                0.993643164     -20.0953578
7.49                 0.993619571     -20.1244414
7.492                0.993596123     -20.1535748
7.494                0.993572823     -20.1827584
7.496                0.993549673     -20.2119926
7.498                0.993526675     -20.2412779
7.5                  0.993503831     -20.2706146
7.502                0.993481143     -20.3000031
7.504                0.993458614      -20.329444
7.506                0.993436246     -20.3589376
7.508                0.993414041     -20.3884843
7.51                    0.993392     -20.4180847
7.512                0.993370126     -20.4477391
7.514                 0.99334842      -20.477448
7.516                0.993326884     -20.5072118
7.518                0.993305519     -20.5370309
7.52                 0.993284328      -20.566906
7.522                0.993263311     -20.5968373
7.524                 0.99324247     -20.6268253
7.526                0.993221807     -20.6568706
7.528                0.993201323     -20.6869735
7.53                 0.993181019     -20.7171346
7.532                0.993160895     -20.7473543
7.534                0.993140954     -20.7776331
7.536                0.993121197     -20.8079714
7.538                0.993101623     -20.8383697
7.54                 0.993082235     -20.8688286
7.542                0.993063032     -20.8993484
7.544                0.993044016     -20.9299297
7.546                0.993025187      -20.960573
7.548                0.993006545     -20.9912787
7.55                 0.992988093     -21.0220474
7.552                0.992969828     -21.0528794
7.554                0.992951753     -21.0837754
7.556                0.992933867     -21.1147358
7.558                 0.99291617     -21.1457612
7.56                 0.992898663     -21.1768519
7.562                0.992881345     -21.2080085
7.564                0.992864217     -21.2392316
7.566                0.992847279     -21.2705216
7.568                 0.99283053     -21.3018789
7.57                 0.992813969     -21.3333043
7.572                0.992797597      -21.364798
7.574                0.992781414     -21.3963607
7.576                0.992765418     -21.4279928
7.578                0.992749609     -21.4596949
7.58                 0.992733987     -21.4914675
7.582                 0.99271855      -21.523311
7.584                0.992703299      -21.555226
7.586                0.992688231     -21.5872131
7.588                0.992673347     -21.6192727
7.59                 0.992658644     -21.6514053
7.592                0.992644123     -21.6836115
7.594                0.992629781     -21.7158917
7.596                0.992615618     -21.7482466
7.598                0.992601631     -21.7806765
7.6                  0.992587821     -21.8131821
7.602                0.992574185     -21.8457638
7.604                0.992560722     -21.8784222
7.606                 0.99254743     -21.9111578
7.608                0.992534307      -21.943971
7.61                 0.992521352     -21.9768625
7.612                0.992508563     -22.0098327
7.614                0.992495937     -22.0428822
7.616                0.992483474     -22.0760115
7.618                 0.99247117      -22.109221
7.62                 0.992459024     -22.1425114
7.622                0.992447034     -22.1758831
7.624                0.992435196     -22.2093366
7.626                 0.99242351     -22.2428726
7.628                0.992411972     -22.2764913
7.63                 0.992400581     -22.3101935
7.632                0.992389333     -22.3439796
7.634                0.992378225     -22.3778502
7.636                0.992367256     -22.4118056
7.638                0.992356423     -22.4458466
7.64                 0.992345722     -22.4799735
7.642                0.992335151     -22.5141869
7.644                0.992324707     -22.5484872
7.646                0.992314387     -22.5828751
7.648                0.992304188      -22.617351
7.65                 0.992294107     -22.6519154
7.652                 0.99228414     -22.6865689
7.654                0.992274285     -22.7213118
7.656                0.992264538     -22.7561449
7.658                0.992254896     -22.7910684
7.66                 0.992245355      -22.826083
7.662                0.992235912     -22.8611892
7.664                0.992226564     -22.8963874
7.666                0.992217306     -22.9316781
7.668                0.992208136     -22.9670619
7.67                  0.99219905     -23.0025392
7.672                0.992190043     -23.0381106
7.674                0.992181113     -23.0737765
7.676                0.992172255     -23.1095374
7.678                0.992163466     -23.1453938
7.68                 0.992154741     -23.1813462
7.682                0.992146077     -23.2173951
7.684                0.992137469      -23.253541
7.686                0.992128915     -23.2897843
7.688                0.992120409     -23.3261256
7.69                 0.992111947     -23.3625652
7.692                0.992103525     -23.3991038
7.694                 0.99209514     -23.4357418
7.696                0.992086786     -23.4724796
7.698                 0.99207846     -23.5093177
7.7                  0.992070157     -23.5462566
7.702                0.992061874     -23.5832968
7.704                0.992053604     -23.6204387
7.706                0.992045345     -23.6576828
7.708                0.992037091     -23.6950296
7.71                 0.992028839     -23.7324795
7.712                0.992020583      -23.770033
7.714                0.992012319     -23.8076905
7.716                0.992004042     -23.8454525
7.718                0.991995749     -23.8833195
7.72                 0.991987434      -23.921292
7.722                0.991979092     -23.9593702
7.724                 0.99197072     -23.9975549
7.726                0.991962311     -24.0358462
7.728                0.991953863     -24.0742448
7.73                 0.991945369      -24.112751
7.732                0.991936825     -24.1513654
7.734                0.991928226     -24.1900882
7.736                0.991919568     -24.2289201
7.738                0.991910845     -24.2678614
7.74                 0.991902054     -24.3069125
7.742                0.991893188     -24.3460739
7.744                0.991884244      -24.385346
7.746                0.991875215     -24.4247292
7.748                0.991866099     -24.4642241
7.75                 0.991856888     -24.5038309
7.752                 0.99184758     -24.5435502
7.754                0.991838168     -24.5833823
7.756                0.991828647     -24.6233276
7.758                0.991819014     -24.6633867
7.76                 0.991809263     -24.7035599
7.762                0.991799389     -24.7438476
7.764                0.991789387     -24.7842502
7.766                0.991779252     -24.8247682
7.768                0.991768979     -24.8654019
7.77                 0.991758564     -24.9061518
7.772                0.991748001     -24.9470183
7.774                0.991737286     -24.9880017
7.776                0.991726414     -25.0291026
7.778                0.991715379     -25.0703212
7.78                 0.991704177     -25.1116581
7.782                0.991692803     -25.1531135
7.784                0.991681252      -25.194688
7.786                0.991669519     -25.2363818
7.788                0.991657599     -25.2781954
7.79                 0.991645488     -25.3201292
7.792                 0.99163318     -25.3621836
7.794                0.991620671      -25.404359
7.796                0.991607956     -25.4466557
7.798                 0.99159503     -25.4890742
7.8                  0.991581889     -25.5316149
7.802                0.991568527      -25.574278
7.804                 0.99155494     -25.6170641
7.806                0.991541123     -25.6599736
7.808                0.991527071     -25.7030067
7.81                  0.99151278     -25.7461639
7.812                0.991498244     -25.7894455
7.814                0.991483461     -25.8328521
7.816                0.991468424     -25.8763838
7.818                0.991453129     -25.9200412
7.82                 0.991437571     -25.9638246
7.822                0.991421746     -26.0077343
7.824                 0.99140565     -26.0517709
7.826                0.991389278     -26.0959345
7.828                0.991372625     -26.1402257
7.83                 0.991355687     -26.1846448
7.832                 0.99133846     -26.2291922
7.834                0.991320939     -26.2738682
7.836                 0.99130312     -26.3186733
7.838                0.991284998     -26.3636078
7.84                  0.99126657     -26.4086721
7.842                 0.99124783     -26.4538666
7.844                0.991228775     -26.4991917
7.846                0.991209401     -26.5446476
7.848                0.991189703     -26.5902349
7.85                 0.991169677     -26.6359539
7.852                0.991149319      -26.681805
7.854                0.991128626     -26.7277885
7.856                0.991107593     -26.7739048
7.858                0.991086215     -26.8201544
7.86                  0.99106449     -26.8665376
7.862                0.991042414     -26.9130547
7.864                0.991019981     -26.9597062
7.866                 0.99099719     -27.0064925
7.868                0.990974035     -27.0534139
7.87                 0.990950513     -27.1004708
7.872                0.990926621     -27.1476636
7.874                0.990902355     -27.1949927
7.876                 0.99087771     -27.2424585
7.878                0.990852685     -27.2900614
7.88                 0.990827274     -27.3378017
7.882                0.990801476     -27.3856799
7.884                0.990775285     -27.4336963
7.886                0.990748699     -27.4818514
7.888                0.990721715     -27.5301455
7.89                 0.990694329      -27.578579
7.892                0.990666538     -27.6271524
7.894                0.990638339      -27.675866
7.896                0.990609728     -27.7247203
7.898                0.990580703     -27.7737156
7.9                  0.990551261     -27.8228523
7.902                0.990521398     -27.8721309
7.904                0.990491112     -27.9215518
7.906                0.990460399     -27.9711154
7.908                0.990429257     -28.0208221
7.91                 0.990397683     -28.0706724
7.912                0.990365675     -28.1206665
7.914                0.990333229     -28.1708051
7.916                0.990300343     -28.2210884
7.918                0.990267014     -28.2715169
7.92                  0.99023324     -28.3220911
7.922                0.990199019     -28.3728114
7.924                0.990164347     -28.4236782
7.926                0.990129223      -28.474692
7.928                0.990093644     -28.5258532
7.93                 0.990057608     -28.5771623
7.932                0.990021112     -28.6286196
7.934                0.989984155     -28.6802257
7.936                0.989946734      -28.731981
7.938                0.989908848      -28.783886
7.94                 0.989870493     -28.8359411
7.942                0.989831669     -28.8881469
7.944                0.989792374     -28.9405037
7.946                0.989752604      -28.993012
7.948                 0.98971236     -29.0456724
7.95                 0.989671639     -29.0984853
7.952                0.989630438     -29.1514512
7.954                0.989588758     -29.2045705
7.956                0.989546595     -29.2578439
7.958                0.989503949     -29.3112717
7.96                 0.989460818     -29.3648546
7.962                0.989417201     -29.4185929
7.964                0.989373095     -29.4724872
7.966                0.989328501     -29.5265381
7.968                0.989283416      -29.580746
7.97                  0.98923784     -29.6351114
7.972                0.989191771      -29.689635
7.974                0.989145208     -29.7443173
7.976                0.989098151     -29.7991587
7.978                0.989050597     -29.8541598
7.98                 0.989002547     -29.9093213
7.982                0.988953999     -29.9646436
7.984                0.988904952     -30.0201273
7.986                0.988855406      -30.075773
7.988                 0.98880536     -30.1315813
7.99                 0.988754813     -30.1875527
7.992                0.988703765     -30.2436878
7.994                0.988652214     -30.2999872
7.996                0.988600162     -30.3564516
7.998                0.988547606     -30.4130815
8                    0.988494547     -30.4698776
8.002                0.988440984     -30.5268404
8.004                0.988386917     -30.5839706
8.006                0.988332346     -30.6412688
8.008                 0.98827727     -30.6987357
8.01                  0.98822169     -30.7563719
8.012                0.988165604      -30.814178
8.014                0.988109014     -30.8721547
8.016                0.988051919     -30.9303028
8.018                0.987994319     -30.9886228
8.02                 0.987936214     -31.0471154
8.022                0.987877604     -31.1057813
8.024                 0.98781849     -31.1646213
8.026                0.987758871      -31.223636
8.028                0.987698749     -31.2828261
8.03                 0.987638122     -31.3421924
8.032                0.987576992     -31.4017355
8.034                 0.98751536     -31.4614563
8.036                0.987453224     -31.5213555
8.038                0.987390587     -31.5814337
8.04                 0.987327448     -31.6416919
8.042                0.987263808     -31.7021306
8.044                0.987199667     -31.7627508
8.046                0.987135027     -31.8235532
8.048                0.987069888     -31.8845386
8.05                 0.987004251     -31.9457078
8.052                0.986938116     -32.0070616
8.054                0.986871485     -32.0686009
8.056                0.986804358     -32.1303264
8.058                0.986736736      -32.192239
8.06                  0.98666862     -32.2543396
8.062                0.986600011      -32.316629
8.064                 0.98653091     -32.3791081
8.066                0.986461318     -32.4417777
8.068                0.986391236     -32.5046388
8.07                 0.986320666     -32.5676922
8.072                0.986249608     -32.6309389
8.074                0.986178064     -32.6943798
8.076                0.986106034     -32.7580158
8.078                0.986033521     -32.8218478
8.08                 0.985960525     -32.8858768
8.082                0.985887047     -32.9501038
8.084                 0.98581309     -33.0145297
8.086                0.985738654     -33.0791555
8.088                0.985663741     -33.1439822
8.09                 0.985588352     -33.2090109
8.092                0.985512488     -33.2742424
8.094                0.985436152     -33.3396779
8.096                0.985359344     -33.4053184
8.098                0.985282067     -33.4711649
8.1                  0.985204321     -33.5372186
8.102                0.985126108     -33.6034804
8.104                 0.98504743     -33.6699514
8.106                0.984968289     -33.7366329
8.108                0.984888685     -33.8035257
8.11                 0.984808621     -33.8706312
8.112                0.984728098     -33.9379504
8.114                0.984647119     -34.0054845
8.116                0.984565684     -34.0732346
8.118                0.984483795     -34.1412019
8.12                 0.984401454     -34.2093877
8.122                0.984318663      -34.277793
8.124                0.984235424     -34.3464191
8.126                0.984151737     -34.4152672
8.128                0.984067606     -34.4843386
8.13                 0.983983032     -34.5536345
8.132                0.983898015     -34.6231562
8.134                0.983812559      -34.692905
8.136                0.983726665     -34.7628821
8.138                0.983640335     -34.8330888
8.14                  0.98355357     -34.9035266
8.142                0.983466373     -34.9741967
8.144                0.983378744     -35.0451005
8.146                0.983290687     -35.1162393
8.148                0.983202201     -35.1876145
8.15                 0.983113291     -35.2592275
8.152                0.983023956     -35.3310797
8.154                0.982934199     -35.4031726
8.156                0.982844021     -35.4755076
8.158                0.982753424     -35.5480861
8.16                 0.982662411     -35.6209096
8.162                0.982570982     -35.6939796
8.164                0.982479139     -35.7672976
8.166                0.982386884     -35.8408651
8.168                0.982294218     -35.9146837
8.17                 0.982201144     -35.9887549
8.172                0.982107662     -36.0630802
8.174                0.982013775     -36.1376612
8.176                0.981919483     -36.2124996
8.178                0.981824789      -36.287597
8.18                 0.981729694     -36.3629549
8.182                0.981634199     -36.4385751
8.184                0.981538306     -36.5144592
8.186                0.981442015     -36.5906089
8.188                 0.98134533     -36.6670258
8.19                  0.98124825     -36.7437117
8.192                0.981150777     -36.8206684
8.194                0.981052913     -36.8978976
8.196                0.980954659      -36.975401
8.198                0.980856015     -37.0531805
8.2                  0.980756983     -37.1312378