! TOUCHSTONE file generated by CST DESIGN STUDIO
! Date and time: Mon Feb 10 16:44:06 2025
! Project name: C:\Work\MatlabApps\UnitCellType2OptimizationMatlab\CST\unitcell.cst
! Tree item: Tasks\Sweep1\SPara1\S-Parameters
! Header version: 2024
! Port assignment regex: !\s*Touchstone port\s*([0-9]+)\s*=\s*(CST MWS port|CST DES external port|CST DES block port)\s*(.+)\s* \(\"(.*)\"\)(\s*mode\s*([0-9]+))?.*
! Touchstone port assignment:
! Touchstone port 1 = CST DES external port 1 ("")
# GHz S MA R 50
7                    0.996158704     -13.7734875
7.002                0.996155107     -13.7935283
7.004                0.996151442     -13.8135933
7.006                0.996147708     -13.8336825
7.008                0.996143907      -13.853796
7.01                 0.996140038     -13.8739339
7.012                0.996136101     -13.8940963
7.014                0.996132097     -13.9142832
7.016                0.996128025     -13.9344946
7.018                0.996123885     -13.9547307
7.02                 0.996119678     -13.9749915
7.022                0.996115404     -13.9952771
7.024                0.996111063     -14.0155876
7.026                0.996106654     -14.0359229
7.028                0.996102179     -14.0562833
7.03                 0.996097637     -14.0766687
7.032                0.996093028     -14.0970792
7.034                0.996088352     -14.1175149
7.036                0.996083609     -14.1379758
7.038                  0.9960788     -14.1584621
7.04                 0.996073925     -14.1789738
7.042                0.996068983     -14.1995109
7.044                0.996063974     -14.2200736
7.046                  0.9960589     -14.2406619
7.048                 0.99605376     -14.2612759
7.05                 0.996048553     -14.2819157
7.052                0.996043281     -14.3025812
7.054                0.996037942     -14.3232727
7.056                0.996032538     -14.3439901
7.058                0.996027069     -14.3647336
7.06                 0.996021534     -14.3855032
7.062                0.996015933      -14.406299
7.064                0.996010267      -14.427121
7.066                0.996004536     -14.4479694
7.068                0.995998739     -14.4688442
7.07                 0.995992877     -14.4897455
7.072                0.995986951     -14.5106733
7.074                0.995980959     -14.5316278
7.076                0.995974903      -14.552609
7.078                0.995968782      -14.573617
7.08                 0.995962596     -14.5946519
7.082                0.995956346     -14.6157137
7.084                0.995950031     -14.6368025
7.086                0.995943652     -14.6579184
7.088                0.995937208     -14.6790615
7.09                 0.995930701     -14.7002318
7.092                0.995924129     -14.7214295
7.094                0.995917493     -14.7426545
7.096                0.995910793     -14.7639071
7.098                 0.99590403     -14.7851873
7.1                  0.995897202      -14.806495
7.102                0.995890312     -14.8278306
7.104                0.995883357     -14.8491939
7.106                0.995876339     -14.8705851
7.108                0.995869258     -14.8920043
7.11                 0.995862113     -14.9134515
7.112                0.995854905     -14.9349269
7.114                0.995847634     -14.9564305
7.116                  0.9958403     -14.9779624
7.118                0.995832903     -14.9995226
7.12                 0.995825443     -15.0211114
7.122                 0.99581792     -15.0427287
7.124                0.995810335     -15.0643746
7.126                0.995802687     -15.0860492
7.128                0.995794976     -15.1077527
7.13                 0.995787203      -15.129485
7.132                0.995779368     -15.1512463
7.134                0.995771471     -15.1730367
7.136                0.995763511     -15.1948562
7.138                0.995755489     -15.2167049
7.14                 0.995747406      -15.238583
7.142                 0.99573926     -15.2604905
7.144                0.995731053     -15.2824275
7.146                0.995722784      -15.304394
7.148                0.995714453     -15.3263902
7.15                 0.995706061     -15.3484162
7.152                0.995697607     -15.3704721
7.154                0.995689092     -15.3925579
7.156                0.995680515     -15.4146737
7.158                0.995671877     -15.4368196
7.16                 0.995663179     -15.4589958
7.162                0.995654419     -15.4812023
7.164                0.995645598     -15.5034391
7.166                0.995636716     -15.5257065
7.168                0.995627774     -15.5480044
7.17                 0.995618771      -15.570333
7.172                0.995609707     -15.5926924
7.174                0.995600583     -15.6150826
7.176                0.995591398     -15.6375038
7.178                0.995582153      -15.659956
7.18                 0.995572847     -15.6824394
7.182                0.995563481      -15.704954
7.184                0.995554056        -15.7275
7.186                 0.99554457     -15.7500774
7.188                0.995535024     -15.7726863
7.19                 0.995525418     -15.7953269
7.192                0.995515753     -15.8179992
7.194                0.995506027     -15.8407033
7.196                0.995496242     -15.8634393
7.198                0.995486398     -15.8862074
7.2                  0.995476494     -15.9090076
7.202                 0.99546653       -15.93184
7.204                0.995456508     -15.9547047
7.206                0.995446426     -15.9776018
7.208                0.995436284     -16.0005315
7.21                 0.995426084     -16.0234938
7.212                0.995415825     -16.0464888
7.214                0.995405506     -16.0695167
7.216                0.995395129     -16.0925774
7.218                0.995384693     -16.1156712
7.22                 0.995374198     -16.1387982
7.222                0.995363645     -16.1619584
7.224                0.995353033     -16.1851519
7.226                0.995342363     -16.2083789
7.228                0.995331634     -16.2316395
7.23                 0.995320847     -16.2549337
7.232                0.995310001     -16.2782617
7.234                0.995299097     -16.3016236
7.236                0.995288135     -16.3250195
7.238                0.995277115     -16.3484495
7.24                 0.995266037     -16.3719136
7.242                0.995254901     -16.3954121
7.244                0.995243708      -16.418945
7.246                0.995232456     -16.4425125
7.248                0.995221147     -16.4661145
7.25                  0.99520978     -16.4897514
7.252                0.995198355     -16.5134231
7.254                0.995186873     -16.5371298
7.256                0.995175334     -16.5608716
7.258                0.995163737     -16.5846485
7.26                 0.995152082     -16.6084608
7.262                0.995140371     -16.6323086
7.264                0.995128602     -16.6561918
7.266                0.995116776     -16.6801108
7.268                0.995104893     -16.7040655
7.27                 0.995092954     -16.7280561
7.272                0.995080957     -16.7520827
7.274                0.995068903     -16.7761454
7.276                0.995056792     -16.8002444
7.278                0.995044625     -16.8243798
7.28                 0.995032401     -16.8485516
7.282                 0.99502012       -16.87276
7.284                0.995007783     -16.8970052
7.286                0.994995389     -16.9212872
7.288                0.994982939     -16.9456061
7.29                 0.994970432     -16.9699621
7.292                0.994957869     -16.9943554
7.294                0.994945249     -17.0187859
7.296                0.994932574      -17.043254
7.298                0.994919842     -17.0677595
7.3                  0.994907054     -17.0923028
7.302                 0.99489421     -17.1168839
7.304                 0.99488131      -17.141503
7.306                0.994868354     -17.1661601
7.308                0.994855342     -17.1908554
7.31                 0.994842274     -17.2155891
7.312                 0.99482915     -17.2403612
7.314                0.994815971     -17.2651719
7.316                0.994802735     -17.2900213
7.318                0.994789444     -17.3149095
7.32                 0.994776098     -17.3398367
7.322                0.994762695      -17.364803
7.324                0.994749238     -17.3898086
7.326                0.994735724     -17.4148535
7.328                0.994722155     -17.4399379
7.33                 0.994708531     -17.4650619
7.332                0.994694852     -17.4902257
7.334                0.994681117     -17.5154294
7.336                0.994667326     -17.5406731
7.338                0.994653481      -17.565957
7.34                  0.99463958     -17.5912811
7.342                0.994625624     -17.6166457
7.344                0.994611613     -17.6420509
7.346                0.994597547     -17.6674968
7.348                0.994583425     -17.6929836
7.35                 0.994569249     -17.7185113
7.352                0.994555017     -17.7440802
7.354                0.994540731     -17.7696903
7.356                 0.99452639     -17.7953418
7.358                0.994511993     -17.8210349
7.36                 0.994497542     -17.8467697
7.362                0.994483036     -17.8725463
7.364                0.994468475     -17.8983649
7.366                0.994453859     -17.9242256
7.368                0.994439189     -17.9501286
7.37                 0.994424463      -17.976074
7.372                0.994409683     -18.0020619
7.374                0.994394849     -18.0280926
7.376                0.994379959     -18.0541661
7.378                0.994365015     -18.0802826
7.38                 0.994350016     -18.1064423
7.382                0.994334963     -18.1326452
7.384                0.994319855     -18.1588916
7.386                0.994304692     -18.1851816
7.388                0.994289475     -18.2115154
7.39                 0.994274203      -18.237893
7.392                0.994258877     -18.2643147
7.394                0.994243496     -18.2907807
7.396                 0.99422806     -18.3172909
7.398                 0.99421257     -18.3438457
7.4                  0.994197026     -18.3704452
7.402                0.994181427     -18.3970895
7.404                0.994165773     -18.4237788
7.406                0.994150065     -18.4505132
7.408                0.994134302     -18.4772929
7.41                 0.994118485     -18.5041181
7.412                0.994102614      -18.530989
7.414                0.994086688     -18.5579055
7.416                0.994070707     -18.5848681
7.418                0.994054673     -18.6118767
7.42                 0.994038583     -18.6389316
7.422                0.994022439      -18.666033
7.424                0.994006241     -18.6931809
7.426                0.993989988     -18.7203756
7.428                 0.99397368     -18.7476173
7.43                 0.993957318      -18.774906
7.432                0.993940902      -18.802242
7.434                0.993924431     -18.8296254
7.436                0.993907905     -18.8570564
7.438                0.993891325     -18.8845352
7.44                  0.99387469     -18.9120619
7.442                0.993858001     -18.9396368
7.444                0.993841257     -18.9672599
7.446                0.993824458     -18.9949315
7.448                0.993807605     -19.0226517
7.45                 0.993790697     -19.0504207
7.452                0.993773735     -19.0782387
7.454                0.993756717     -19.1061058
7.456                0.993739645     -19.1340223
7.458                0.993722519     -19.1619883
7.46                 0.993705337      -19.190004
7.462                0.993688101     -19.2180695
7.464                0.993670809     -19.2461851
7.466                0.993653463      -19.274351
7.468                0.993636062     -19.3025672
7.47                 0.993618606      -19.330834
7.472                0.993601095     -19.3591517
7.474                0.993583529     -19.3875202
7.476                0.993565907       -19.41594
7.478                0.993548231      -19.444411
7.48                 0.993530499     -19.4729336
7.482                0.993512713     -19.5015079
7.484                0.993494871     -19.5301341
7.486                0.993476974     -19.5588124
7.488                0.993459021      -19.587543
7.49                 0.993441013      -19.616326
7.492                0.993422949     -19.6451617
7.494                 0.99340483     -19.6740503
7.496                0.993386656     -19.7029919
7.498                0.993368426     -19.7319868
7.5                   0.99335014     -19.7610351
7.502                0.993331798     -19.7901371
7.504                0.993313401     -19.8192929
7.506                0.993294948     -19.8485027
7.508                0.993276439     -19.8777668
7.51                 0.993257873     -19.9070853
7.512                0.993239252     -19.9364585
7.514                0.993220575     -19.9658865
7.516                0.993201841     -19.9953695
7.518                0.993183051     -20.0249079
7.52                 0.993164205     -20.0545016
7.522                0.993145302     -20.0841511
7.524                0.993126343     -20.1138564
7.526                0.993107327     -20.1436178
7.528                0.993088255     -20.1734354
7.53                 0.993069125     -20.2033096
7.532                0.993049939     -20.2332405
7.534                0.993030696     -20.2632284
7.536                0.993011396     -20.2932733
7.538                0.992992039     -20.3233757
7.54                 0.992972624     -20.3535356
7.542                0.992953152     -20.3837533
7.544                0.992933623      -20.414029
7.546                0.992914036     -20.4443629
7.548                0.992894392     -20.4747553
7.55                  0.99287469     -20.5052063
7.552                 0.99285493     -20.5357163
7.554                0.992835112     -20.5662853
7.556                0.992815236     -20.5969137
7.558                0.992795302     -20.6276016
7.56                  0.99277531     -20.6583494
7.562                0.992755259     -20.6891571
7.564                0.992735149     -20.7200251
7.566                0.992714981     -20.7509536
7.568                0.992694755     -20.7819428
7.57                 0.992674469     -20.8129929
7.572                0.992654124     -20.8441042
7.574                0.992633721     -20.8752769
7.576                0.992613258     -20.9065113
7.578                0.992592735     -20.9378075
7.58                 0.992572153     -20.9691658
7.582                0.992551511     -21.0005865
7.584                 0.99253081     -21.0320698
7.586                0.992510048     -21.0636159
7.588                0.992489226     -21.0952252
7.59                 0.992468345     -21.1268977
7.592                0.992447402     -21.1586338
7.594                0.992426399     -21.1904337
7.596                0.992405336     -21.2222977
7.598                0.992384211      -21.254226
7.6                  0.992363026     -21.2862188
7.602                0.992341779     -21.3182765
7.604                0.992320471     -21.3503992
7.606                0.992299101     -21.3825873
7.608                 0.99227767     -21.4148409
7.61                 0.992256176     -21.4471603
7.612                0.992234621     -21.4795458
7.614                0.992213003     -21.5119977
7.616                0.992191323     -21.5445162
7.618                0.992169581     -21.5771015
7.62                 0.992147775      -21.609754
7.622                0.992125907     -21.6424738
7.624                0.992103976     -21.6752614
7.626                0.992081981     -21.7081168
7.628                0.992059922     -21.7410404
7.63                   0.9920378     -21.7740325
7.632                0.992015614     -21.8070933
7.634                0.991993364     -21.8402231
7.636                0.991971049     -21.8734222
7.638                 0.99194867     -21.9066909
7.64                 0.991926226     -21.9400293
7.642                0.991903717     -21.9734379
7.644                0.991881143     -22.0069168
7.646                0.991858504     -22.0404665
7.648                0.991835798      -22.074087
7.65                 0.991813027     -22.1077788
7.652                 0.99179019     -22.1415421
7.654                0.991767286     -22.1753771
7.656                0.991744316     -22.2092843
7.658                0.991721279     -22.2432639
7.66                 0.991698175      -22.277316
7.662                0.991675004     -22.3114412
7.664                0.991651765     -22.3456396
7.666                0.991628458     -22.3799115
7.668                0.991605083     -22.4142573
7.67                  0.99158164     -22.4486772
7.672                0.991558128     -22.4831716
7.674                0.991534548     -22.5177407
7.676                0.991510898     -22.5523848
7.678                0.991487179     -22.5871042
7.68                  0.99146339     -22.6218993
7.682                0.991439532     -22.6567704
7.684                0.991415603     -22.6917177
7.686                0.991391604     -22.7267416
7.688                0.991367534     -22.7618424
7.69                 0.991343392     -22.7970203
7.692                 0.99131918     -22.8322758
7.694                0.991294896     -22.8676091
7.696                0.991270539     -22.9030206
7.698                0.991246111     -22.9385105
7.7                   0.99122161     -22.9740792
7.702                0.991197036      -23.009727
7.704                0.991172389     -23.0454543
7.706                0.991147668     -23.0812613
7.708                0.991122874     -23.1171484
7.71                 0.991098005     -23.1531159
7.712                0.991073062     -23.1891642
7.714                0.991048044     -23.2252936
7.716                0.991022951     -23.2615043
7.718                0.990997783     -23.2977969
7.72                 0.990972538     -23.3341715
7.722                0.990947217     -23.3706286
7.724                 0.99092182     -23.4071684
7.726                0.990896346     -23.4437914
7.728                0.990870795     -23.4804979
7.73                 0.990845166     -23.5172881
7.732                0.990819459     -23.5541625
7.734                0.990793673     -23.5911215
7.736                0.990767809     -23.6281653
7.738                0.990741866     -23.6652943
7.74                 0.990715843     -23.7025089
7.742                0.990689741     -23.7398095
7.744                0.990663558     -23.7771963
7.746                0.990637294     -23.8146698
7.748                0.990610949     -23.8522304
7.75                 0.990584523     -23.8898783
7.752                0.990558015      -23.927614
7.754                0.990531425     -23.9654379
7.756                0.990504752     -24.0033502
7.758                0.990477995     -24.0413514
7.76                 0.990451155     -24.0794419
7.762                0.990424232      -24.117622
7.764                0.990397223     -24.1558922
7.766                 0.99037013     -24.1942527
7.768                0.990342951      -24.232704
7.77                 0.990315687     -24.2712465
7.772                0.990288336     -24.3098806
7.774                0.990260899     -24.3486066
7.776                0.990233375     -24.3874249
7.778                0.990205762      -24.426336
7.78                 0.990178062     -24.4653402
7.782                0.990150273     -24.5044379
7.784                0.990122396     -24.5436296
7.786                0.990094428     -24.5829156
7.788                0.990066371     -24.6222964
7.79                 0.990038223     -24.6617723
7.792                0.990009983     -24.7013438
7.794                0.989981653     -24.7410113
7.796                 0.98995323     -24.7807751
7.798                0.989924715     -24.8206358
7.8                  0.989896106     -24.8605937
7.802                0.989867404     -24.9006493
7.804                0.989838608     -24.9408029
7.806                0.989809717      -24.981055
7.808                0.989780731     -25.0214061
7.81                 0.989751649     -25.0618565
7.812                 0.98972247     -25.1024067
7.814                0.989693195     -25.1430571
7.816                0.989663822     -25.1838083
7.818                0.989634351     -25.2246605
7.82                 0.989604781     -25.2656143
7.822                0.989575112       -25.30667
7.824                0.989545344     -25.3478283
7.826                0.989515474     -25.3890894
7.828                0.989485504     -25.4304539
7.83                 0.989455432     -25.4719221
7.832                0.989425258     -25.5134947
7.834                0.989394981      -25.555172
7.836                0.989364601     -25.5969544
7.838                0.989334117     -25.6388426
7.84                 0.989303527     -25.6808368
7.842                0.989272833     -25.7229377
7.844                0.989242032     -25.7651456
7.846                0.989211124      -25.807461
7.848                 0.98918011     -25.8498845
7.85                 0.989148987     -25.8924165
7.852                0.989117755     -25.9350575
7.854                0.989086414      -25.977808
7.856                0.989054963     -26.0206685
7.858                0.989023401     -26.0636394
7.86                 0.988991728     -26.1067213
7.862                0.988959942     -26.1499146
7.864                0.988928044     -26.1932199
7.866                0.988896032     -26.2366377
7.868                0.988863905     -26.2801684
7.87                 0.988831663     -26.3238126
7.872                0.988799306     -26.3675709
7.874                0.988766832     -26.4114436
7.876                0.988734241     -26.4554314
7.878                0.988701531     -26.4995347
7.88                 0.988668703     -26.5437541
7.882                0.988635755     -26.5880901
7.884                0.988602686     -26.6325433
7.886                0.988569497     -26.6771141
7.888                0.988536185     -26.7218032
7.89                  0.98850275      -26.766611
7.892                0.988469192     -26.8115381
7.894                0.988435509      -26.856585
7.896                0.988401701     -26.9017524
7.898                0.988367767     -26.9470406
7.9                  0.988333706     -26.9924504
7.902                0.988299517     -27.0379823
7.904                0.988265199     -27.0836368
7.906                0.988230751     -27.1294145
7.908                0.988196174     -27.1753159
7.91                 0.988161464     -27.2213417
7.912                0.988126623     -27.2674924
7.914                0.988091648     -27.3137686
7.916                0.988056539     -27.3601709
7.918                0.988021295     -27.4066998
7.92                 0.987985916      -27.453356
7.922                0.987950399       -27.50014
7.924                0.987914745     -27.5470525
7.926                0.987878951      -27.594094
7.928                0.987843019     -27.6412652
7.93                 0.987806945     -27.6885667
7.932                 0.98777073      -27.735999
7.934                0.987734372     -27.7835628
7.936                 0.98769787     -27.8312587
7.938                0.987661223     -27.8790873
7.94                 0.987624431     -27.9270493
7.942                0.987587492     -27.9751453
7.944                0.987550406     -28.0233759
7.946                 0.98751317     -28.0717418
7.948                0.987475785     -28.1202436
7.95                 0.987438249     -28.1688819
7.952                 0.98740056     -28.2176574
7.954                0.987362719     -28.2665707
7.956                0.987324723     -28.3156226
7.958                0.987286572     -28.3648137
7.96                 0.987248265     -28.4141445
7.962                0.987209799     -28.4636159
7.964                0.987171176     -28.5132285
7.966                0.987132392     -28.5629829
7.968                0.987093447     -28.6128799
7.97                 0.987054341       -28.66292
7.972                 0.98701507     -28.7131041
7.974                0.986975635     -28.7634328
7.976                0.986936035     -28.8139069
7.978                0.986896267     -28.8645269
7.98                 0.986856332     -28.9152937
7.982                0.986816226     -28.9662079
7.984                0.986775951     -29.0172702
7.986                0.986735503     -29.0684814
7.988                0.986694882     -29.1198422
7.99                 0.986654086     -29.1713534
7.992                0.986613115     -29.2230156
7.994                0.986571966     -29.2748296
7.996                0.986530639     -29.3267961
7.998                0.986489133      -29.378916
8                    0.986447445     -29.4311898
8.002                0.986405575     -29.4836185
8.004                0.986363521     -29.5362028
8.006                0.986321282     -29.5889434
8.008                0.986278856     -29.6418411
8.01                 0.986236242     -29.6948967
8.012                0.986193439     -29.7481109
8.014                0.986150445     -29.8014846
8.016                0.986107259     -29.8550186
8.018                0.986063879     -29.9087136
8.02                 0.986020304     -29.9625704
8.022                0.985976532     -30.0165899
8.024                0.985932562     -30.0707729
8.026                0.985888392     -30.1251201
8.028                0.985844021     -30.1796325
8.03                 0.985799447     -30.2343108
8.032                0.985754669     -30.2891558
8.034                0.985709685     -30.3441685
8.036                0.985664493     -30.3993496
8.038                0.985619093        -30.4547
8.04                 0.985573481     -30.5102206
8.042                0.985527658     -30.5659121
8.044                 0.98548162     -30.6217756
8.046                0.985435367     -30.6778118
8.048                0.985388897     -30.7340217
8.05                 0.985342207      -30.790406
8.052                0.985295297     -30.8469658
8.054                0.985248165     -30.9037019
8.056                0.985200808     -30.9606152
8.058                0.985153226     -31.0177066
8.06                 0.985105416      -31.074977
8.062                0.985057377     -31.1324273
8.064                0.985009106     -31.1900585
8.066                0.984960602     -31.2478715
8.068                0.984911864     -31.3058673
8.07                 0.984862888     -31.3640467
8.072                0.984813675     -31.4224107
8.074                 0.98476422     -31.4809603
8.076                0.984714524     -31.5396965
8.078                0.984664583     -31.5986201
8.08                 0.984614396     -31.6577323
8.082                 0.98456396     -31.7170339
8.084                0.984513275      -31.776526
8.086                0.984462337     -31.8362095
8.088                0.984411145     -31.8960854
8.09                 0.984359697     -31.9561549
8.092                0.984307991     -32.0164188
8.094                0.984256025     -32.0768781
8.096                0.984203796      -32.137534
8.098                0.984151303     -32.1983875
8.1                  0.984098543     -32.2594396
8.102                0.984045515     -32.3206913
8.104                0.983992215     -32.3821437
8.106                0.983938643     -32.4437979
8.108                0.983884795     -32.5056549
8.11                  0.98383067     -32.5677158
8.112                0.983776265     -32.6299818
8.114                0.983721578     -32.6924538
8.116                0.983666606     -32.7551331
8.118                0.983611348     -32.8180206
8.12                 0.983555801     -32.8811176
8.122                0.983499963      -32.944425
8.124                0.983443831     -33.0079442
8.126                0.983387404     -33.0716762
8.128                0.983330677     -33.1356221
8.13                  0.98327365     -33.1997832
8.132                0.983216319     -33.2641605
8.134                0.983158683     -33.3287553
8.136                0.983100738     -33.3935687
8.138                0.983042482     -33.4586019
8.14                 0.982983913     -33.5238561
8.142                0.982925028     -33.5893325
8.144                0.982865824     -33.6550324
8.146                0.982806299     -33.7209569
8.148                 0.98274645     -33.7871072
8.15                 0.982686274     -33.8534847
8.152                0.982625769     -33.9200905
8.154                0.982564932     -33.9869259
8.156                 0.98250376     -34.0539922
8.158                0.982442251     -34.1212907
8.16                 0.982380401     -34.1888225
8.162                0.982318208     -34.2565891
8.164                0.982255669     -34.3245917
8.166                0.982192781     -34.3928317
8.168                0.982129541     -34.4613102
8.17                 0.982065946     -34.5300288
8.172                0.982001994     -34.5989887
8.174                0.981937681     -34.6681912
8.176                0.981873004     -34.7376377
8.178                 0.98180796     -34.8073296
8.18                 0.981742546     -34.8772683
8.182                0.981676758     -34.9474551
8.184                0.981610595     -35.0178915
8.186                0.981544053     -35.0885788
8.188                0.981477127     -35.1595185
8.19                 0.981409816     -35.2307119
8.192                0.981342116     -35.3021606
8.194                0.981274023      -35.373866
8.196                0.981205535     -35.4458294
8.198                0.981136648     -35.5180525
8.2                  0.981067358     -35.5905367