! TOUCHSTONE file generated by CST DESIGN STUDIO
! Date and time: Mon Feb 10 16:44:13 2025
! Project name: C:\Work\MatlabApps\UnitCellType2OptimizationMatlab\CST\unitcell.cst
! Tree item: Tasks\Sweep1\SPara1\S-Parameters
! Header version: 2024
! Port assignment regex: !\s*Touchstone port\s*([0-9]+)\s*=\s*(CST MWS port|CST DES external port|CST DES block port)\s*(.+)\s* \(\"(.*)\"\)(\s*mode\s*([0-9]+))?.*
! Touchstone port assignment:
! Touchstone port 1 = CST DES external port 1 ("")
# GHz S MA R 50
7                    0.994021928     -10.9524053
7.002                  0.9940398     -10.9717695
7.004                  0.9940574     -10.9911576
7.006                0.994074726     -11.0105694
7.008                0.994091776      -11.030005
7.01                 0.994108548     -11.0494642
7.012                0.994125039     -11.0689469
7.014                0.994141249     -11.0884532
7.016                0.994157174     -11.1079829
7.018                0.994172813     -11.1275359
7.02                 0.994188164     -11.1471122
7.022                0.994203225     -11.1667117
7.024                0.994217993     -11.1863342
7.026                0.994232467     -11.2059798
7.028                0.994246645     -11.2256482
7.03                 0.994260524     -11.2453395
7.032                0.994274104     -11.2650535
7.034                0.994287382     -11.2847901
7.036                0.994300356     -11.3045492
7.038                0.994313024     -11.3243307
7.04                 0.994325385     -11.3441345
7.042                0.994337436     -11.3639605
7.044                0.994349177     -11.3838086
7.046                0.994360604     -11.4036786
7.048                0.994371718     -11.4235705
7.05                 0.994382515     -11.4434842
7.052                0.994392994     -11.4634194
7.054                0.994403154     -11.4833761
7.056                0.994412992     -11.5033541
7.058                0.994422509     -11.5233534
7.06                 0.994431701     -11.5433738
7.062                0.994440567     -11.5634151
7.064                0.994449107     -11.5834772
7.066                0.994457318       -11.60356
7.068                0.994465199     -11.6236633
7.07                  0.99447275      -11.643787
7.072                0.994479968      -11.663931
7.074                0.994486852      -11.684095
7.076                0.994493402     -11.7042789
7.078                0.994499616     -11.7244827
7.08                 0.994505492      -11.744706
7.082                0.994511031     -11.7649489
7.084                0.994516231      -11.785211
7.086                0.994521091     -11.8054922
7.088                 0.99452561     -11.8257924
7.09                 0.994529788     -11.8461115
7.092                0.994533623     -11.8664491
7.094                0.994537115     -11.8868052
7.096                0.994540263     -11.9071796
7.098                0.994543067     -11.9275721
7.1                  0.994545526     -11.9479825
7.102                 0.99454764     -11.9684107
7.104                0.994549408     -11.9888564
7.106                0.994550831     -12.0093196
7.108                0.994551906     -12.0297999
7.11                 0.994552636     -12.0502972
7.112                0.994553018     -12.0708113
7.114                0.994553054     -12.0913421
7.116                0.994552744     -12.1118893
7.118                0.994552086     -12.1324528
7.12                 0.994551082     -12.1530323
7.122                0.994549732     -12.1736277
7.124                0.994548036     -12.1942387
7.126                0.994545995     -12.2148652
7.128                0.994543608     -12.2355069
7.13                 0.994540877     -12.2561637
7.132                0.994537802     -12.2768354
7.134                0.994534383     -12.2975217
7.136                0.994530623     -12.3182225
7.138                 0.99452652     -12.3389375
7.14                 0.994522077     -12.3596667
7.142                0.994517295     -12.3804096
7.144                0.994512174     -12.4011662
7.146                0.994506715     -12.4219363
7.148                0.994500921     -12.4427196
7.15                 0.994494792     -12.4635159
7.152                 0.99448833     -12.4843251
7.154                0.994481536     -12.5051469
7.156                0.994474412     -12.5259811
7.158                 0.99446696     -12.5468276
7.16                 0.994459182     -12.5676861
7.162                0.994451079     -12.5885564
7.164                0.994442653     -12.6094384
7.166                0.994433908     -12.6303318
7.168                0.994424843     -12.6512364
7.17                 0.994415463     -12.6721521
7.172                 0.99440577     -12.6930786
7.174                0.994395765     -12.7140158
7.176                0.994385452     -12.7349634
7.178                0.994374833     -12.7559213
7.18                  0.99436391     -12.7768893
7.182                0.994352688     -12.7978671
7.184                0.994341167     -12.8188547
7.186                0.994329353     -12.8398518
7.188                0.994317247     -12.8608583
7.19                 0.994304852     -12.8818739
7.192                0.994292173     -12.9028986
7.194                0.994279213      -12.923932
7.196                0.994265974     -12.9449741
7.198                0.994252461     -12.9660248
7.2                  0.994238677     -12.9870837
7.202                0.994224626     -13.0081509
7.204                0.994210312      -13.029226
7.206                0.994195738      -13.050309
7.208                0.994180909     -13.0713998
7.21                 0.994165828     -13.0924981
7.212                  0.9941505     -13.1136038
7.214                0.994134929     -13.1347168
7.216                 0.99411912      -13.155837
7.218                0.994103076     -13.1769643
7.22                 0.994086802     -13.1980984
7.222                0.994070303     -13.2192394
7.224                0.994053583      -13.240387
7.226                0.994036647     -13.2615412
7.228                  0.9940195     -13.2827019
7.23                 0.994002146     -13.3038689
7.232                0.993984591     -13.3250422
7.234                 0.99396684     -13.3462217
7.236                0.993948896     -13.3674073
7.238                0.993930767     -13.3885989
7.24                 0.993912456     -13.4097965
7.242                0.993893969     -13.4309999
7.244                0.993875311     -13.4522092
7.246                0.993856487     -13.4734242
7.248                0.993837504     -13.4946449
7.25                 0.993818365     -13.5158713
7.252                0.993799078     -13.5371034
7.254                0.993779646      -13.558341
7.256                0.993760077     -13.5795842
7.258                0.993740375      -13.600833
7.26                 0.993720546     -13.6220873
7.262                0.993700596     -13.6433471
7.264                0.993680531     -13.6646125
7.266                0.993660355     -13.6858834
7.268                0.993640076     -13.7071599
7.27                 0.993619699     -13.7284419
7.272                0.993599229     -13.7497296
7.274                0.993578673     -13.7710229
7.276                0.993558036     -13.7923219
7.278                0.993537324     -13.8136266
7.28                 0.993516544     -13.8349371
7.282                  0.9934957     -13.8562534
7.284                  0.9934748     -13.8775756
7.286                0.993453849     -13.8989039
7.288                0.993432852     -13.9202382
7.29                 0.993411816     -13.9415786
7.292                0.993390747     -13.9629253
7.294                0.993369651     -13.9842784
7.296                0.993348533     -14.0056379
7.298                  0.9933274      -14.027004
7.3                  0.993306257     -14.0483768
7.302                 0.99328511     -14.0697565
7.304                0.993263965     -14.0911431
7.306                0.993242828     -14.1125368
7.308                0.993221705     -14.1339379
7.31                 0.993200601     -14.1553463
7.312                0.993179523     -14.1767624
7.314                0.993158476     -14.1981862
7.316                0.993137465     -14.2196179
7.318                0.993116497     -14.2410578
7.32                 0.993095576      -14.262506
7.322                0.993074709     -14.2839627
7.324                0.993053902     -14.3054282
7.326                0.993033158     -14.3269026
7.328                0.993012485     -14.3483861
7.33                 0.992991887     -14.3698791
7.332                 0.99297137     -14.3913816
7.334                0.992950938      -14.412894
7.336                0.992930598     -14.4344164
7.338                0.992910354     -14.4559493
7.34                 0.992890212     -14.4774927
7.342                0.992870176     -14.4990469
7.344                0.992850251     -14.5206123
7.346                0.992830443      -14.542189
7.348                0.992810756     -14.5637775
7.35                 0.992791195     -14.5853778
7.352                0.992771764     -14.6069905
7.354                0.992752468     -14.6286156
7.356                0.992733312     -14.6502536
7.358                0.992714301     -14.6719047
7.36                 0.992695437     -14.6935692
7.362                0.992676727     -14.7152475
7.364                0.992658173     -14.7369398
7.366                0.992639781     -14.7586466
7.368                0.992621554      -14.780368
7.37                 0.992603496     -14.8021046
7.372                0.992585611     -14.8238564
7.374                0.992567902      -14.845624
7.376                0.992550374     -14.8674077
7.378                 0.99253303     -14.8892078
7.38                 0.992515873     -14.9110246
7.382                0.992498908     -14.9328586
7.384                0.992482136       -14.95471
7.386                0.992465562     -14.9765793
7.388                0.992449188     -14.9984667
7.39                 0.992433018     -15.0203727
7.392                0.992417054     -15.0422977
7.394                  0.9924013     -15.0642419
7.396                0.992385757     -15.0862058
7.398                0.992370429     -15.1081898
7.4                  0.992355318     -15.1301942
7.402                0.992340427     -15.1522194
7.404                0.992325758     -15.1742658
7.406                0.992311313     -15.1963338
7.408                0.992297094     -15.2184238
7.41                 0.992283103     -15.2405362
7.412                0.992269342     -15.2626713
7.414                0.992255814     -15.2848295
7.416                 0.99224252     -15.3070113
7.418                 0.99222946      -15.329217
7.42                 0.992216638     -15.3514471
7.422                0.992204054     -15.3737019
7.424                 0.99219171     -15.3959819
7.426                0.992179607     -15.4182873
7.428                0.992167746     -15.4406187
7.43                 0.992156128     -15.4629765
7.432                0.992144755     -15.4853609
7.434                0.992133626     -15.5077725
7.436                0.992122743     -15.5302117
7.438                0.992112106     -15.5526788
7.44                 0.992101717     -15.5751742
7.442                0.992091574     -15.5976984
7.444                 0.99208168     -15.6202517
7.446                0.992072034     -15.6428346
7.448                0.992062636     -15.6654474
7.45                 0.992053486     -15.6880906
7.452                0.992044585     -15.7107646
7.454                0.992035932     -15.7334696
7.456                0.992027527     -15.7562063
7.458                 0.99201937     -15.7789749
7.46                 0.992011461     -15.8017758
7.462                0.992003799     -15.8246095
7.464                0.991996383     -15.8474763
7.466                0.991989214     -15.8703767
7.468                 0.99198229      -15.893311
7.47                 0.991975611     -15.9162796
7.472                0.991969175     -15.9392829
7.474                0.991962983     -15.9623213
7.476                0.991957032     -15.9853953
7.478                0.991951322      -16.008505
7.48                 0.991945852     -16.0316511
7.482                0.991940621     -16.0548338
7.484                0.991935626     -16.0780535
7.486                0.991930868     -16.1013106
7.488                0.991926343     -16.1246055
7.49                 0.991922052     -16.1479385
7.492                0.991917992     -16.1713101
7.494                0.991914162     -16.1947206
7.496                0.991910559     -16.2181704
7.498                0.991907183     -16.2416598
7.5                  0.991904031     -16.2651892
7.502                0.991901101      -16.288759
7.504                0.991898392     -16.3123695
7.506                0.991895902     -16.3360211
7.508                0.991893627     -16.3597141
7.51                 0.991891567     -16.3834489
7.512                0.991889719     -16.4072259
7.514                 0.99188808     -16.4310454
7.516                0.991886649     -16.4549078
7.518                0.991885423     -16.4788134
7.52                   0.9918844     -16.5027624
7.522                0.991883576     -16.5267554
7.524                 0.99188295     -16.5507926
7.526                 0.99188252     -16.5748744
7.528                0.991882281      -16.599001
7.53                 0.991882233     -16.6231728
7.532                0.991882371     -16.6473902
7.534                0.991882693     -16.6716535
7.536                0.991883197     -16.6959629
7.538                 0.99188388     -16.7203189
7.54                 0.991884738     -16.7447217
7.542                0.991885769     -16.7691716
7.544                0.991886969      -16.793669
7.546                0.991888337     -16.8182141
7.548                0.991889868     -16.8428073
7.55                 0.991891559     -16.8674489
7.552                0.991893408     -16.8921392
7.554                0.991895411     -16.9168784
7.556                0.991897565     -16.9416669
7.558                0.991899868      -16.966505
7.56                 0.991902314     -16.9913929
7.562                0.991904902      -17.016331
7.564                0.991907628     -17.0413195
7.566                0.991910488     -17.0663587
7.568                 0.99191348     -17.0914489
7.57                 0.991916599     -17.1165904
7.572                0.991919843     -17.1417834
7.574                0.991923207     -17.1670282
7.576                0.991926689     -17.1923251
7.578                0.991930285     -17.2176744
7.58                  0.99193399     -17.2430762
7.582                0.991937803      -17.268531
7.584                0.991941719     -17.2940389
7.586                0.991945734     -17.3196001
7.588                0.991949845      -17.345215
7.59                 0.991954048     -17.3708839
7.592                 0.99195834     -17.3966068
7.594                0.991962716     -17.4223841
7.596                0.991967174     -17.4482161
7.598                0.991971708     -17.4741029
7.6                  0.991976317     -17.5000449
7.602                0.991980995     -17.5260422
7.604                0.991985739      -17.552095
7.606                0.991990546     -17.5782037
7.608                0.991995411     -17.6043684
7.61                 0.992000331     -17.6305893
7.612                0.992005301     -17.6568668
7.614                0.992010318     -17.6832009
7.616                0.992015378      -17.709592
7.618                0.992020478     -17.7360401
7.62                 0.992025612     -17.7625457
7.622                0.992030778     -17.7891087
7.624                0.992035972     -17.8157296
7.626                0.992041189     -17.8424084
7.628                0.992046425     -17.8691453
7.63                 0.992051677     -17.8959406
7.632                0.992056941     -17.9227945
7.634                0.992062213     -17.9497072
7.636                0.992067488     -17.9766788
7.638                0.992072763     -18.0037095
7.64                 0.992078034     -18.0307995
7.642                0.992083297     -18.0579491
7.644                0.992088547     -18.0851583
7.646                0.992093782     -18.1124275
7.648                0.992098996     -18.1397566
7.65                 0.992104187      -18.167146
7.652                0.992109349     -18.1945958
7.654                0.992114479     -18.2221061
7.656                0.992119573     -18.2496772
7.658                0.992124627     -18.2773092
7.66                 0.992129637     -18.3050022
7.662                0.992134598     -18.3327565
7.664                0.992139508     -18.3605721
7.666                0.992144361     -18.3884493
7.668                0.992149154     -18.4163881
7.67                 0.992153883     -18.4443888
7.672                0.992158544     -18.4724515
7.674                0.992163133     -18.5005763
7.676                0.992167645     -18.5287634
7.678                0.992172078     -18.5570129
7.68                 0.992176426      -18.585325
7.682                0.992180686     -18.6136997
7.684                0.992184854     -18.6421373
7.686                0.992188926     -18.6706378
7.688                0.992192898     -18.6992014
7.69                 0.992196766     -18.7278282
7.692                0.992200526     -18.7565184
7.694                0.992204175      -18.785272
7.696                0.992207707     -18.8140892
7.698                 0.99221112     -18.8429701
7.7                  0.992214409     -18.8719148
7.702                 0.99221757     -18.9009234
7.704                  0.9922206     -18.9299961
7.706                0.992223495     -18.9591329
7.708                 0.99222625     -18.9883339
7.71                 0.992228862     -19.0175993
7.712                0.992231328     -19.0469291
7.714                0.992233642     -19.0763235
7.716                0.992235802     -19.1057826
7.718                0.992237804     -19.1353064
7.72                 0.992239643      -19.164895
7.722                0.992241317     -19.1945485
7.724                0.992242821      -19.224267
7.726                0.992244151     -19.2540507
7.728                0.992245305     -19.2838995
7.73                 0.992246277     -19.3138135
7.732                0.992247065     -19.3437929
7.734                0.992247665     -19.3738377
7.736                0.992248073     -19.4039479
7.738                0.992248285     -19.4341238
7.74                 0.992248299     -19.4643652
7.742                0.992248109     -19.4946723
7.744                0.992247714     -19.5250452
7.746                0.992247109     -19.5554838
7.748                0.992246291     -19.5859884
7.75                 0.992245257     -19.6165588
7.752                0.992244002     -19.6471952
7.754                0.992242524     -19.6778977
7.756                0.992240819     -19.7086663
7.758                0.992238884     -19.7395009
7.76                 0.992236716     -19.7704018
7.762                 0.99223431     -19.8013689
7.764                0.992231665     -19.8324022
7.766                0.992228777     -19.8635018
7.768                0.992225642     -19.8946678
7.77                 0.992222258     -19.9259001
7.772                0.992218621     -19.9571988
7.774                0.992214728      -19.988564
7.776                0.992210577     -20.0199956
7.778                0.992206163     -20.0514937
7.78                 0.992201486     -20.0830584
7.782                 0.99219654     -20.1146895
7.784                0.992191324     -20.1463873
7.786                0.992185835     -20.1781516
7.788                 0.99218007     -20.2099825
7.79                 0.992174026       -20.24188
7.792                0.992167701     -20.2738441
7.794                0.992161091     -20.3058749
7.796                0.992154195     -20.3379723
7.798                 0.99214701     -20.3701363
7.8                  0.992139533      -20.402367
7.802                0.992131762     -20.4346644
7.804                0.992123694     -20.4670284
7.806                0.992115328     -20.4994591
7.808                0.992106661     -20.5319564
7.81                  0.99209769     -20.5645205
7.812                0.992088414     -20.5971511
7.814                 0.99207883     -20.6298485
7.816                0.992068936     -20.6626124
7.818                0.992058732     -20.6954431
7.82                 0.992048213     -20.7283403
7.822                0.992037379     -20.7613042
7.824                0.992026229     -20.7943347
7.826                0.992014759     -20.8274317
7.828                0.992002969     -20.8605954
7.83                 0.991990857     -20.8938256
7.832                0.991978421     -20.9271224
7.834                 0.99196566     -20.9604858
7.836                0.991952572     -20.9939156
7.838                0.991939157      -21.027412
7.84                 0.991925413     -21.0609749
7.842                0.991911338     -21.0946042
7.844                0.991896933        -21.1283
7.846                0.991882195     -21.1620622
7.848                0.991867123     -21.1958908
7.85                 0.991851718     -21.2297858
7.852                0.991835978     -21.2637472
7.854                0.991819901     -21.2977749
7.856                0.991803489      -21.331869
7.858                 0.99178674     -21.3660294
7.86                 0.991769653     -21.4002561
7.862                0.991752229      -21.434549
7.864                0.991734466     -21.4689082
7.866                0.991716366     -21.5033337
7.868                0.991697926     -21.5378253
7.87                 0.991679149     -21.5723832
7.872                0.991660032     -21.6070072
7.874                0.991640578     -21.6416974
7.876                0.991620785     -21.6764538
7.878                0.991600653     -21.7112763
7.88                 0.991580185     -21.7461649
7.882                0.991559379     -21.7811197
7.884                0.991538236     -21.8161405
7.886                0.991516757     -21.8512275
7.888                0.991494943     -21.8863805
7.89                 0.991472794     -21.9215996
7.892                0.991450312     -21.9568848
7.894                0.991427496     -21.9922361
7.896                0.991404349     -22.0276535
7.898                0.991380871     -22.0631369
7.9                  0.991357064     -22.0986865
7.902                0.991332929     -22.1343021
7.904                0.991308467     -22.1699839
7.906                0.991283679     -22.2057317
7.908                0.991258568     -22.2415457
7.91                 0.991233135     -22.2774259
7.912                0.991207382     -22.3133722
7.914                 0.99118131     -22.3493847
7.916                0.991154922     -22.3854635
7.918                0.991128219     -22.4216085
7.92                 0.991101204     -22.4578198
7.922                0.991073879     -22.4940975
7.924                0.991046245     -22.5304415
7.926                0.991018306     -22.5668519
7.928                0.990990064     -22.6033289
7.93                  0.99096152     -22.6398723
7.932                0.990932679     -22.6764823
7.934                0.990903542      -22.713159
7.936                0.990874112     -22.7499024
7.938                0.990844392     -22.7867126
7.94                 0.990814385     -22.8235896
7.942                0.990784095     -22.8605336
7.944                0.990753523     -22.8975446
7.946                0.990722673     -22.9346228
7.948                0.990691548     -22.9717681
7.95                 0.990660152     -23.0089808
7.952                0.990628488     -23.0462609
7.954                0.990596559     -23.0836086
7.956                0.990564369     -23.1210239
7.958                0.990531921      -23.158507
7.96                  0.99049922      -23.196058
7.962                0.990466267      -23.233677
7.964                0.990433069     -23.2713643
7.966                0.990399627     -23.3091199
7.968                0.990365946      -23.346944
7.97                  0.99033203     -23.3848367
7.972                0.990297883     -23.4227983
7.974                0.990263509     -23.4608288
7.976                0.990228912     -23.4989286
7.978                0.990194096     -23.5370977
7.98                 0.990159065     -23.5753363
7.982                0.990123824     -23.6136448
7.984                0.990088376     -23.6520232
7.986                0.990052726     -23.6904717
7.988                0.990016879     -23.7289907
7.99                 0.989980838     -23.7675803
7.992                0.989944608     -23.8062408
7.994                0.989908194     -23.8449723
7.996                  0.9898716     -23.8837753
7.998                0.989834831     -23.9226498
8                    0.989797891     -23.9615963
8.002                0.989760784     -24.0006149
8.004                0.989723515     -24.0397059
8.006                0.989686089     -24.0788697
8.008                0.989648511     -24.1181064
8.01                 0.989610785     -24.1574166
8.012                0.989572915     -24.1968003
8.014                0.989534907      -24.236258
8.016                0.989496765       -24.27579
8.018                0.989458493     -24.3153966
8.02                 0.989420097     -24.3550782
8.022                 0.98938158      -24.394835
8.024                0.989342949     -24.4346676
8.026                0.989304207     -24.4745761
8.028                0.989265359     -24.5145611
8.03                 0.989226409     -24.5546229
8.032                0.989187363     -24.5947618
8.034                0.989148225     -24.6349784
8.036                   0.989109     -24.6752729
8.038                0.989069691     -24.7156458
8.04                 0.989030305     -24.7560975
8.042                0.988990845     -24.7966285
8.044                0.988951316     -24.8372391
8.046                0.988911722     -24.8779299
8.048                0.988872069     -24.9187012
8.05                 0.988832359     -24.9595536
8.052                0.988792599     -25.0004875
8.054                0.988752792     -25.0415034
8.056                0.988712942     -25.0826018
8.058                0.988673054     -25.1237831
8.06                 0.988633133     -25.1650479
8.062                0.988593182     -25.2063966
8.064                0.988553205     -25.2478298
8.066                0.988513207      -25.289348
8.068                0.988473192     -25.3309517
8.07                 0.988433165     -25.3726415
8.072                0.988393128     -25.4144179
8.074                0.988353085     -25.4562814
8.076                0.988313042     -25.4982327
8.078                0.988273001     -25.5402722
8.08                 0.988232967     -25.5824006
8.082                0.988192943     -25.6246184
8.084                0.988152932     -25.6669262
8.086                0.988112939     -25.7093246
8.088                0.988072967     -25.7518143
8.09                 0.988033019     -25.7943957
8.092                0.987993098     -25.8370696
8.094                0.987953209     -25.8798365
8.096                0.987913354      -25.922697
8.098                0.987873537     -25.9656519
8.1                   0.98783376     -26.0087017
8.102                0.987794027     -26.0518471
8.104                0.987754341     -26.0950887
8.106                0.987714703     -26.1384272
8.108                0.987675119     -26.1818633
8.11                 0.987635589     -26.2253976
8.112                0.987596117     -26.2690307
8.114                0.987556706     -26.3127635
8.116                0.987517357     -26.3565965
8.118                0.987478073     -26.4005305
8.12                 0.987438857     -26.4445661
8.122                 0.98739971     -26.4887041
8.124                0.987360636     -26.5329451
8.126                0.987321635     -26.5772899
8.128                0.987282711     -26.6217392
8.13                 0.987243865     -26.6662937
8.132                0.987205098     -26.7109542
8.134                0.987166413     -26.7557213
8.136                0.987127811     -26.8005959
8.138                0.987089293     -26.8455786
8.14                 0.987050862     -26.8906702
8.142                0.987012519     -26.9358715
8.144                0.986974265     -26.9811832
8.146                  0.9869361     -27.0266061
8.148                0.986898027     -27.0721409
8.15                 0.986860047     -27.1177884
8.152                0.986822159     -27.1635494
8.154                0.986784366     -27.2094247
8.156                0.986746668      -27.255415
8.158                0.986709066     -27.3015211
8.16                  0.98667156     -27.3477439
8.162                0.986634151     -27.3940841
8.164                0.986596839     -27.4405425
8.166                0.986559624     -27.4871199
8.168                0.986522508     -27.5338171
8.17                  0.98648549      -27.580635
8.172                 0.98644857     -27.6275742
8.174                0.986411748     -27.6746358
8.176                0.986375024     -27.7218204
8.178                0.986338398     -27.7691289
8.18                  0.98630187     -27.8165621
8.182                0.986265439     -27.8641209
8.184                0.986229106     -27.9118061
8.186                0.986192868     -27.9596184
8.188                0.986156727     -28.0075589
8.19                 0.986120681     -28.0556282
8.192                 0.98608473     -28.1038272
8.194                0.986048872     -28.1521569
8.196                0.986013107     -28.2006179
8.198                0.985977434     -28.2492113
8.2                  0.985941852     -28.2979378