! TOUCHSTONE file generated by CST DESIGN STUDIO
! Date and time: Mon Feb 10 16:46:51 2025
! Project name: C:\Work\MatlabApps\UnitCellType2OptimizationMatlab\CST\unitcell.cst
! Tree item: Tasks\Sweep1\SPara1\S-Parameters
! Header version: 2024
! Port assignment regex: !\s*Touchstone port\s*([0-9]+)\s*=\s*(CST MWS port|CST DES external port|CST DES block port)\s*(.+)\s* \(\"(.*)\"\)(\s*mode\s*([0-9]+))?.*
! Touchstone port assignment:
! Touchstone port 1 = CST DES external port 1 ("")
# GHz S MA R 50
7                    0.994009494     -14.3114246
7.002                0.994026298      -14.331787
7.004                 0.99404316     -14.3521499
7.006                 0.99406008     -14.3725135
7.008                0.994077057     -14.3928776
7.01                 0.994097786     -14.4142083
7.012                0.994118596     -14.4355397
7.014                0.994139488     -14.4568719
7.016                0.994160462     -14.4782049
7.018                0.994177774     -14.5005413
7.02                  0.99419517      -14.522879
7.022                0.994212651     -14.5452181
7.024                0.994230216     -14.5675586
7.026                0.994237166      -14.590723
7.028                0.994244179     -14.6138898
7.03                 0.994251256     -14.6370588
7.032                0.994258397     -14.6602301
7.034                0.994250345     -14.6838561
7.036                0.994242317     -14.7074853
7.038                0.994234315     -14.7311177
7.04                 0.994226338     -14.7547533
7.042                0.994202419      -14.778389
7.044                0.994178477     -14.8020286
7.046                0.994154511     -14.8256719
7.048                0.994130521      -14.849319
7.05                   0.9940939     -14.8725515
7.052                0.994057209     -14.8957878
7.054                0.994020447     -14.9190279
7.056                0.993983615     -14.9422717
7.058                0.993940451     -14.9648395
7.06                 0.993897185     -14.9874103
7.062                 0.99385382     -15.0099841
7.064                0.993810353     -15.0325611
7.066                0.993767985     -15.0544144
7.068                 0.99372551     -15.0762698
7.07                 0.993682929     -15.0981273
7.072                0.993640242      -15.119987
7.074                0.993605187     -15.1412746
7.076                 0.99357004     -15.1625636
7.078                0.993534802     -15.1838541
7.08                 0.993499472     -15.2051461
7.082                0.993476037     -15.2261615
7.084                0.993452539      -15.247178
7.086                0.993428979     -15.2681956
7.088                0.993405357     -15.2892142
7.09                 0.993395098     -15.3103014
7.092                0.993384814     -15.3313895
7.094                0.993374507     -15.3524784
7.096                0.993364175     -15.3735681
7.098                0.993366056      -15.395066
7.1                  0.993367953     -15.4165647
7.102                0.993369865     -15.4380643
7.104                0.993371792     -15.4595647
7.106                0.993382637     -15.4817529
7.108                 0.99339353     -15.5039422
7.11                 0.993404469     -15.5261326
7.112                0.993415456      -15.548324
7.114                0.993430486     -15.5713815
7.116                0.993445585     -15.5944403
7.118                0.993460752     -15.6175006
7.12                 0.993475988     -15.6405624
7.122                0.993489394     -15.6645459
7.124                0.993502876     -15.6885313
7.126                0.993516433     -15.7125187
7.128                0.993530067     -15.7365081
7.13                 0.993535952     -15.7613169
7.132                  0.9935419     -15.7861284
7.134                0.993547911     -15.8109427
7.136                0.993553986     -15.8357597
7.138                0.993547619     -15.8611471
7.14                 0.993541281     -15.8865381
7.142                0.993534974     -15.9119328
7.144                0.993528696      -15.937331
7.146                 0.99350777     -15.9629291
7.148                0.993486829     -15.9885313
7.15                 0.993465874     -16.0141377
7.152                0.993444903     -16.0397482
7.154                0.993410452     -16.0651607
7.156                0.993375942     -16.0905773
7.158                0.993341371     -16.1159982
7.16                  0.99330674     -16.1414233
7.162                0.993263232     -16.1663121
7.164                0.993219628     -16.1912047
7.166                0.993175928     -16.2161012
7.168                0.993132133     -16.2410014
7.17                 0.993086339     -16.2652164
7.172                0.993040432     -16.2894343
7.174                0.992994412     -16.3136552
7.176                0.992948278     -16.3378791
7.178                0.992907496     -16.3614674
7.18                 0.992866607     -16.3850577
7.182                0.992825612     -16.4086501
7.184                0.992784511     -16.4322446
7.186                0.992754502     -16.4554659
7.188                0.992724413     -16.4786887
7.19                 0.992694246      -16.501913
7.192                0.992663999     -16.5251386
7.194                0.992647578     -16.5483613
7.196                0.992631116     -16.5715852
7.198                0.992614613     -16.5948103
7.2                  0.992598069     -16.6180365
7.202                0.992594626     -16.6416489
7.204                0.992591182     -16.6652624
7.206                0.992587739     -16.6888771
7.208                0.992584295     -16.7124929
7.21                 0.992590419     -16.7368104
7.212                0.992596581     -16.7611294
7.214                0.992602781     -16.7854497
7.216                0.992609018     -16.8097713
7.218                0.992619597     -16.8349722
7.22                  0.99263024      -16.860175
7.222                0.992640947     -16.8853796
7.224                0.992651716     -16.9105862
7.226                0.992661047     -16.9367094
7.228                0.992670448     -16.9628353
7.23                  0.99267992     -16.9889639
7.232                0.992689463     -17.0150953
7.234                0.992692267     -17.0420403
7.236                0.992695131     -17.0689888
7.238                0.992698054     -17.0959408
7.24                 0.992701036     -17.1228965
7.242                0.992693231     -17.1504527
7.244                0.992685457     -17.1780131
7.246                0.992677713     -17.2055778
7.248                0.992670001     -17.2331469
7.25                 0.992649325     -17.2610159
7.252                0.992628636     -17.2888898
7.254                0.992607936     -17.3167685
7.256                0.992587225      -17.344652
7.258                0.992553865     -17.3725022
7.26                 0.992520447     -17.4003573
7.262                0.992486972     -17.4282173
7.264                0.992453441     -17.4560822
7.266                0.992410185     -17.4836024
7.268                0.992366835     -17.5111271
7.27                 0.992323391     -17.5386562
7.272                0.992279852     -17.5661898
7.274                0.992231905     -17.5931693
7.276                0.992183842     -17.6201525
7.278                0.992135663     -17.6471394
7.28                  0.99208737     -17.6741301
7.282                0.992041341     -17.7005225
7.284                0.991995195     -17.7269177
7.286                0.991948931     -17.7533158
7.288                0.991902549     -17.7797169
7.29                 0.991864788     -17.8056727
7.292                0.991826926     -17.8316308
7.294                0.991788965      -17.857591
7.296                0.991750904     -17.8835535
7.298                0.991725815     -17.9093898
7.3                  0.991700662     -17.9352278
7.302                0.991675444     -17.9610676
7.304                0.991650162     -17.9869091
7.306                0.991638905     -18.0130286
7.308                0.991627628     -18.0391496
7.31                 0.991616329     -18.0652723
7.312                0.991605011     -18.0913967
7.314                0.991605234     -18.1181782
7.316                0.991605479     -18.1449616
7.318                0.991605745     -18.1717468
7.32                 0.991606032     -18.1985339
7.322                 0.99161263     -18.2262457
7.324                0.991619283       -18.25396
7.326                0.991625991     -18.2816766
7.328                0.991632754     -18.3093955
7.33                 0.991639369     -18.3381184
7.332                0.991646055     -18.3668445
7.334                0.991652811     -18.3955739
7.336                0.991659639     -18.4243066
7.338                0.991660203     -18.4539559
7.34                  0.99166083     -18.4836096
7.342                0.991661521     -18.5132678
7.344                0.991662275     -18.5429304
7.346                0.991652306     -18.5732737
7.348                 0.99164237     -18.6036225
7.35                 0.991632469     -18.6339766
7.352                0.991622601     -18.6643362
7.354                0.991599881     -18.6950733
7.356                0.991577149     -18.7258163
7.358                0.991554406     -18.7565652
7.36                 0.991531653       -18.78732
7.362                0.991496456     -18.8181276
7.364                0.991461199     -18.8489412
7.366                0.991425884     -18.8797606
7.368                0.991390511     -18.9105859
7.37                 0.991345346     -18.9411851
7.372                0.991300082     -18.9717897
7.374                0.991254717     -19.0023997
7.376                0.991209252     -19.0330152
7.378                0.991158478     -19.0632053
7.38                 0.991107578        -19.0934
7.382                0.991056552     -19.1235994
7.384                0.991005401     -19.1538035
7.386                0.990954566     -19.1835136
7.388                0.990903601     -19.2132276
7.39                 0.990852505     -19.2429454
7.392                0.990801278      -19.272667
7.394                0.990756119     -19.3019751
7.396                0.990710844     -19.3312863
7.398                0.990665451     -19.3606006
7.4                  0.990619941      -19.389918
7.402                0.990585232     -19.4190507
7.404                0.990550436     -19.4481861
7.406                0.990515551     -19.4773242
7.408                0.990480577      -19.506465
7.41                  0.99045889     -19.5357656
7.412                0.990437155     -19.5650687
7.414                0.990415372     -19.5943743
7.416                0.990393541     -19.6236824
7.418                0.990384331     -19.6535358
7.42                 0.990375117     -19.6833918
7.422                  0.9903659     -19.7132504
7.424                0.990356681     -19.7431116
7.426                 0.99035627     -19.7738514
7.428                0.990355895     -19.8045943
7.43                 0.990355557     -19.8353403
7.432                0.990355256     -19.8660895
7.434                0.990357591     -19.8979085
7.436                0.990359989     -19.9297316
7.438                0.990362448     -19.9615589
7.44                  0.99036497     -19.9933902
7.442                 0.99036322     -20.0262818
7.444                0.990361535     -20.0591786
7.446                0.990359916     -20.0920808
7.448                0.990358361     -20.1249883
7.45                 0.990346639     -20.1587673
7.452                0.990334958     -20.1925528
7.454                0.990323319     -20.2263449
7.456                0.990311721     -20.2601436
7.458                0.990286576     -20.2944836
7.46                 0.990261425      -20.328831
7.462                0.990236269     -20.3631859
7.464                0.990211109     -20.3975481
7.466                0.990172106     -20.4320861
7.468                 0.99013304     -20.4666314
7.47                 0.990093911     -20.5011843
7.472                 0.99005472     -20.5357446
7.474                0.990004406     -20.5701496
7.476                0.989953978     -20.6045615
7.478                0.989903437     -20.6389802
7.48                 0.989852782     -20.6734058
7.482                0.989795831     -20.7074609
7.484                0.989738734      -20.741522
7.486                0.989681492     -20.7755889
7.488                0.989624103     -20.8096619
7.49                 0.989566189     -20.8432985
7.492                 0.98950812     -20.8769402
7.494                0.989449895     -20.9105869
7.496                0.989391515     -20.9442386
7.498                0.989338178     -20.9775269
7.5                  0.989284698     -21.0108193
7.502                0.989231076     -21.0441159
7.504                 0.98917731     -21.0774167
7.506                0.989133028     -21.1105664
7.508                0.989088634     -21.1437197
7.51                 0.989044127     -21.1768767
7.512                0.988999507     -21.2100374
7.514                 0.98896698     -21.2433398
7.516                 0.98893438     -21.2766458
7.518                0.988901706     -21.3099555
7.52                 0.988868958     -21.3432687
7.522                0.988848501     -21.3770685
7.524                0.988828013     -21.4108722
7.526                0.988807495     -21.4446797
7.528                0.988786947     -21.4784911
7.53                 0.988776263     -21.5131168
7.532                0.988765589     -21.5477469
7.534                0.988754927     -21.5823813
7.536                0.988744277     -21.6170203
7.538                0.988738645     -21.6527151
7.54                 0.988733056     -21.6884152
7.542                 0.98872751     -21.7241206
7.544                0.988722008     -21.7598313
7.546                0.988715106     -21.7967002
7.548                 0.98870826     -21.8335758
7.55                 0.988701471     -21.8704582
7.552                0.988694738     -21.9073472
7.554                0.988680005     -21.9452986
7.556                0.988665314     -21.9832581
7.558                0.988650666     -22.0212257
7.56                 0.988636062     -22.0592015
7.562                0.988608366     -22.0979713
7.564                0.988580672     -22.1367504
7.566                 0.98855298     -22.1755386
7.568                0.988525288     -22.2143361
7.57                 0.988482357     -22.2535443
7.572                0.988439366      -22.292762
7.574                0.988396315     -22.3319892
7.576                0.988353204      -22.371226
7.578                0.988296269     -22.4104739
7.58                 0.988239207     -22.4497308
7.582                0.988182019     -22.4889967
7.584                0.988124704     -22.5282716
7.586                0.988058221     -22.5672473
7.588                0.987991561     -22.6062307
7.59                 0.987924725     -22.6452221
7.592                0.987857713     -22.6842213
7.594                0.987788131      -22.722778
7.596                0.987718354     -22.7613414
7.598                 0.98764838     -22.7999114
7.6                  0.987578209      -22.838488
7.602                0.987512262     -22.8766792
7.604                0.987446128     -22.9148761
7.606                0.987379808     -22.9530788
7.608                0.987313301     -22.9912872
7.61                  0.98725635     -23.0293315
7.612                0.987199244     -23.0673809
7.614                0.987141985     -23.1054355
7.616                0.987084571     -23.1434952
7.618                0.987039607     -23.1817279
7.62                 0.986994537     -23.2199655
7.622                0.986949359     -23.2582082
7.624                0.986904074     -23.2964559
7.626                0.986871373     -23.3352342
7.628                0.986838615     -23.3740178
7.63                 0.986805799     -23.4128068
7.632                0.986772925     -23.4516012
7.634                0.986750277     -23.4912507
7.636                0.986727615     -23.5309062
7.638                0.986704939     -23.5705679
7.64                 0.986682249     -23.6102358
7.642                0.986665408     -23.6509989
7.644                0.986648587     -23.6917692
7.646                0.986631785     -23.7325468
7.648                0.986615002     -23.7733318
7.65                 0.986598426     -23.8153299
7.652                0.986581885     -23.8573366
7.654                 0.98656538      -23.899352
7.656                0.986548912      -23.941376
7.658                0.986526547     -23.9845953
7.66                 0.986504212     -24.0278251
7.662                0.986481906     -24.0710651
7.664                0.986459631     -24.1143156
7.666                0.986425983     -24.1585823
7.668                 0.98639233     -24.2028609
7.67                 0.986358674     -24.2471512
7.672                0.986325013     -24.2914534
7.674                0.986276323     -24.3364539
7.676                 0.98622757     -24.3814669
7.678                0.986178752     -24.4264922
7.68                  0.98612987       -24.47153
7.682                0.986065317     -24.5168646
7.684                0.986000626     -24.5622112
7.686                0.985935798     -24.6075698
7.688                0.985870832     -24.6529404
7.69                 0.985793103     -24.6982188
7.692                0.985715168     -24.7435079
7.694                0.985637025     -24.7888077
7.696                0.985558677     -24.8341182
7.698                0.985473684     -24.8790716
7.7                  0.985388443      -24.924034
7.702                0.985302951     -24.9690056
7.704                0.985217211     -25.0139863
7.706                0.985132625     -25.0585383
7.708                0.985047785     -25.1030981
7.71                  0.98496269     -25.1476658
7.712                 0.98487734     -25.1922413
7.714                0.984800576      -25.236563
7.716                0.984723588     -25.2808919
7.718                0.984646377      -25.325228
7.72                 0.984568942     -25.3695713
7.722                0.984505063      -25.414016
7.724                0.984441016     -25.4584677
7.726                0.984376799     -25.5029266
7.728                0.984312413     -25.5473928
7.73                 0.984262797     -25.5924197
7.732                0.984213078     -25.6374543
7.734                0.984163252     -25.6824965
7.736                0.984113321     -25.7275464
7.738                0.984075742     -25.7735709
7.74                 0.984038117      -25.819604
7.742                0.984000444     -25.8656455
7.744                0.983962724     -25.9116957
7.746                0.983932163     -25.9590163
7.748                0.983901596     -26.0063467
7.75                 0.983871023     -26.0536871
7.752                0.983840444     -26.1010376
7.754                0.983810626     -26.1497884
7.756                 0.98378082     -26.1985508
7.758                0.983751024     -26.2473249
7.76                  0.98372124     -26.2961106
7.762                0.983685876     -26.3462697
7.764                0.983650514     -26.3964424
7.766                0.983615154     -26.4466286
7.768                0.983579797     -26.4968285
7.77                 0.983533538      -26.548228
7.772                0.983487247     -26.5996428
7.774                0.983440924     -26.6510729
7.776                 0.98339457     -26.7025183
7.778                0.983333742     -26.7548889
7.78                 0.983272825     -26.8072759
7.782                0.983211818     -26.8596793
7.784                0.983150721     -26.9120992
7.786                0.983073696     -26.9650991
7.788                0.982996506     -27.0181153
7.79                  0.98291915     -27.0711478
7.792                0.982841627     -27.1241966
7.794                0.982749544     -27.1774563
7.796                0.982657217     -27.2307309
7.798                0.982564645     -27.2840205
7.8                  0.982471827      -27.337325
7.802                0.982368692     -27.3905207
7.804                0.982265248     -27.4437293
7.806                0.982161495     -27.4969508
7.808                0.982057433     -27.5501851
7.81                 0.981950128     -27.6031185
7.812                0.981842485     -27.6560629
7.814                0.981734504     -27.7090183
7.816                0.981626185     -27.7619848
7.818                 0.98152288     -27.8146715
7.82                 0.981419251     -27.8673682
7.822                0.981315299      -27.920075
7.824                0.981211023     -27.9727918
7.826                0.981119214     -28.0255086
7.828                0.981027136     -28.0782355
7.83                 0.980934787     -28.1309724
7.832                 0.98084217     -28.1837195
7.834                0.980766273     -28.2369452
7.836                0.980690185     -28.2901817
7.838                0.980613904     -28.3434291
7.84                 0.980537432     -28.3966875
7.842                0.980477169     -28.4509784
7.844                0.980416797     -28.5052817
7.846                0.980356316     -28.5595972
7.848                0.980295724     -28.6139251
7.85                 0.980246246      -28.669766
7.852                0.980196723      -28.725621
7.854                0.980147154     -28.7814901
7.856                 0.98009754     -28.8373732
7.858                0.980050923     -28.8950272
7.86                  0.98000429     -28.9526973
7.862                0.979957642     -29.0103834
7.864                0.979910978     -29.0680857
7.866                0.979858523     -29.1275546
7.868                 0.97980604     -29.1870417
7.87                  0.97975353      -29.246547
7.872                0.979700993     -29.3060705
7.874                0.979635612     -29.3671574
7.876                0.979570155     -29.4282646
7.878                 0.97950462     -29.4893921
7.88                  0.97943901     -29.5505399
7.882                0.979356462     -29.6128836
7.884                0.979273762     -29.6752492
7.886                0.979190911     -29.7376366
7.888                 0.97910791     -29.8000458
7.89                 0.979007018     -29.8632614
7.892                0.978905888     -29.9264994
7.894                 0.97880452     -29.9897597
7.896                0.978702914     -30.0530426
7.898                0.978585286     -30.1167655
7.9                  0.978467333       -30.18051
7.902                0.978349054     -30.2442759
7.904                0.978230449     -30.3080635
7.906                0.978099935     -30.3720011
7.908                 0.97796902     -30.4359578
7.91                 0.977837705     -30.4999338
7.912                0.977705988     -30.5639291
7.914                0.977568175     -30.6278868
7.916                0.977429913     -30.6918607
7.918                0.977291201     -30.7558511
7.92                 0.977152039     -30.8198578
7.922                0.977014157     -30.8837743
7.924                0.976875819      -30.947705
7.926                0.976737024     -31.0116499
7.928                0.976597771      -31.075609
7.93                 0.976467632     -31.1396269
7.932                0.976337076     -31.2036586
7.934                0.976206103     -31.2677041
7.936                0.976074713     -31.3317633
7.938                0.975959032     -31.3962573
7.94                 0.975843014     -31.4607664
7.942                0.975726658     -31.5252906
7.944                0.975609967     -31.5898303
7.946                 0.97551191      -31.655376
7.948                0.975413617     -31.7209395
7.95                  0.97531509     -31.7865207
7.952                0.975216328     -31.8521197
7.954                0.975133865     -31.9193614
7.956                0.975051267     -31.9866238
7.958                0.974968534     -32.0539069
7.96                 0.974885665     -32.1212108
7.962                0.974811371     -32.1906733
7.964                0.974737006     -32.2601595
7.966                 0.97466257     -32.3296692
7.968                0.974588063     -32.3992028
7.97                 0.974511052     -32.4711217
7.972                0.974433973     -32.5430666
7.974                0.974356827     -32.6150376
7.976                0.974279613     -32.6870348
7.978                0.974188679     -32.7612793
7.98                 0.974097616     -32.8355514
7.982                0.974006421     -32.9098511
7.984                0.973915096     -32.9841785
7.986                0.973802097     -33.0603293
7.988                0.973688854      -33.136509
7.99                  0.97357537     -33.2127175
7.992                0.973461644     -33.2889548
7.994                0.973323636      -33.366431
7.996                0.973185258     -33.4439369
7.998                0.973046512     -33.5214727
8                    0.972907398     -33.5990383
8.002                0.972746611     -33.6772943
8.004                0.972585341     -33.7555807
8.006                0.972423586     -33.8338976
8.008                0.972261348     -33.9122451
8.01                 0.972083679     -33.9909199
8.012                0.971905434     -34.0696248
8.014                0.971726617     -34.1483598
8.016                0.971547227     -34.2271249
8.018                0.971360268     -34.3060321
8.02                 0.971172684     -34.3849673
8.022                0.970984474     -34.4639306
8.024                0.970795638     -34.5429221
8.026                0.970606834     -34.6221047
8.028                0.970417388     -34.7013124
8.03                   0.9702273     -34.7805454
8.032                0.970036571     -34.8598038
8.034                0.969853041     -34.9394096
8.036                0.969668895     -35.0190383
8.038                0.969484131     -35.0986899
8.04                 0.969298748     -35.1783645
8.042                0.969126624     -35.2587247
8.044                 0.96895395     -35.3391074
8.046                0.968780726     -35.4195128
8.048                 0.96860695     -35.4999408
8.05                 0.968450643     -35.5815392
8.052                0.968293893     -35.6631625
8.054                0.968136695     -35.7448105
8.056                0.967979052     -35.8264836
8.058                0.967839712     -35.9099328
8.06                 0.967700044     -35.9934105
8.062                 0.96756005     -36.0769168
8.064                0.967419729     -36.1604517
8.066                0.967293263     -36.2464568
8.068                0.967166572     -36.3324948
8.07                 0.967039658     -36.4185657
8.072                0.966912521       -36.50467
8.074                0.966789232     -36.5937425
8.076                 0.96666576     -36.6828513
8.078                0.966542106     -36.7719963
8.08                  0.96641827     -36.8611778
8.082                0.966284593     -36.9535296
8.084                0.966150681     -37.0459196
8.086                0.966016534     -37.1383478
8.088                0.965882152     -37.2308142
8.09                 0.965724343     -37.3261949
8.092                0.965566152     -37.4216148
8.094                0.965407583     -37.5170734
8.096                0.965248632      -37.612571
8.098                0.965057495     -37.7102985
8.1                  0.964865795     -37.8080662
8.102                0.964673533      -37.905874
8.104                0.964480707     -38.0037219
8.106                0.964254638     -38.1029543
8.108                0.964027836     -38.2022318
8.11                 0.963800304     -38.3015545
8.112                0.963572041     -38.4009224
8.114                0.963317572     -38.5009359
8.116                 0.96306225     -38.6010022
8.118                0.962806085     -38.7011218
8.12                 0.962549079      -38.801295
8.122                0.962277953     -38.9016753
8.124                0.962005931     -39.0021146
8.126                0.961733022     -39.1026134
8.128                0.961459235     -39.2031723
8.13                 0.961184077     -39.3039898
8.132                0.960908044     -39.4048676
8.134                0.960631148     -39.5058062
8.136                  0.9603534     -39.6068062
8.138                 0.96008451     -39.7084214
8.14                 0.959814832     -39.8100974
8.142                0.959544378     -39.9118347
8.144                0.959273163     -40.0136337
8.146                0.959016331     -40.1165841
8.148                0.958758948     -40.2196137
8.15                 0.958501042     -40.3227231
8.152                0.958242644     -40.4259125
8.154                0.957998249     -40.5305842
8.156                0.957754598     -40.6355077
8.158                0.957512142      -40.740673
8.16                  0.95727132     -40.8460676
8.162                0.957040182     -40.9523025
8.164                0.956806058      -41.059513
8.166                0.956576604      -41.167654
8.168                0.956358168     -41.2764737
8.17                   0.9561421     -41.3867647
8.172                0.955925015     -41.4973952
8.174                0.955707624     -41.6083759
8.176                0.955490669     -41.7197127
8.178                0.955278739     -41.8341552
8.18                  0.95506647     -41.9487092
8.182                0.954853896     -42.0633759
8.184                0.954641054     -42.1781567
8.186                0.954421746     -42.2968918
8.188                0.954202091     -42.4157198
8.19                 0.953982102     -42.5346415
8.192                0.953761794     -42.6536577
8.194                0.953519739     -42.7767774
8.196                0.953277256     -42.8999969
8.198                0.953034363     -43.0233161
8.2                  0.952791071     -43.1467362