! TOUCHSTONE file generated by CST DESIGN STUDIO
! Date and time: Mon Feb 10 16:46:54 2025
! Project name: C:\Work\MatlabApps\UnitCellType2OptimizationMatlab\CST\unitcell.cst
! Tree item: Tasks\Sweep1\SPara1\S-Parameters
! Header version: 2024
! Port assignment regex: !\s*Touchstone port\s*([0-9]+)\s*=\s*(CST MWS port|CST DES external port|CST DES block port)\s*(.+)\s* \(\"(.*)\"\)(\s*mode\s*([0-9]+))?.*
! Touchstone port assignment:
! Touchstone port 1 = CST DES external port 1 ("")
# GHz S MA R 50
7                    0.993403806     -13.0473669
7.002                0.993423881     -13.0669465
7.004                 0.99344403     -13.0865262
7.006                0.993464254      -13.106106
7.008                0.993484552     -13.1256859
7.01                 0.993502253     -13.1461476
7.012                0.993520017       -13.16661
7.014                0.993537845     -13.1870731
7.016                0.993555734      -13.207537
7.018                0.993564186     -13.2287806
7.02                 0.993572695     -13.2500248
7.022                0.993581263     -13.2712695
7.024                 0.99358989     -13.2925148
7.026                0.993583646     -13.3142125
7.028                0.993577434     -13.3359117
7.03                 0.993571257     -13.3576124
7.032                0.993565114     -13.3793146
7.034                0.993542558     -13.4009796
7.036                 0.99351997     -13.4226477
7.038                0.993497349     -13.4443188
7.04                 0.993474696     -13.4659929
7.042                0.993439182      -13.487152
7.044                0.993403581     -13.5083139
7.046                0.993367894     -13.5294788
7.048                 0.99333212     -13.5506464
7.05                 0.993291071     -13.5710097
7.052                0.993249934     -13.5913746
7.054                0.993208708     -13.6117413
7.056                0.993167393     -13.6321097
7.058                0.993129665     -13.6516739
7.06                 0.993091868     -13.6712392
7.062                0.993054002     -13.6908057
7.064                0.993016066     -13.7103735
7.066                0.992988734     -13.7294089
7.068                0.992961354     -13.7484452
7.07                 0.992933925     -13.7674826
7.072                0.992906446      -13.786521
7.074                 0.99289259     -13.8054383
7.076                0.992878715     -13.8243561
7.078                0.992864822     -13.8432743
7.08                  0.99285091      -13.862193
7.082                0.992849524     -13.8813851
7.084                0.992848145     -13.9005778
7.086                0.992846771     -13.9197709
7.088                0.992845405     -13.9389645
7.09                 0.992852993     -13.9586894
7.092                0.992860587     -13.9784152
7.094                0.992868189      -13.998142
7.096                0.992875797     -14.0178697
7.098                0.992888165     -14.0382536
7.1                  0.992900549     -14.0586381
7.102                0.992912948      -14.079023
7.104                0.992925363     -14.0994084
7.106                0.992938634     -14.1204873
7.108                0.992951956     -14.1415661
7.11                  0.99296533     -14.1626446
7.112                0.992978756     -14.1837229
7.114                0.992989446     -14.2054776
7.116                0.993000209     -14.2272328
7.118                0.993011045     -14.2489886
7.12                 0.993021954     -14.2707449
7.122                0.993026447     -14.2931113
7.124                0.993030992     -14.3154793
7.126                0.993035587     -14.3378491
7.128                0.993040232     -14.3602206
7.13                 0.993034898     -14.3830394
7.132                0.993029581       -14.40586
7.134                0.993024281     -14.4286825
7.136                0.993018998     -14.4515067
7.138                0.993001314     -14.4745048
7.14                 0.992983618     -14.4975045
7.142                 0.99296591     -14.5205059
7.144                 0.99294819     -14.5435089
7.146                0.992918335     -14.5663213
7.148                0.992888427     -14.5891359
7.15                 0.992858465     -14.6119529
7.152                 0.99282845     -14.6347721
7.154                0.992790206     -14.6570631
7.156                0.992751869     -14.6793565
7.158                0.992713438     -14.7016525
7.16                 0.992674914     -14.7239509
7.162                0.992635149      -14.745533
7.164                0.992595293     -14.7671166
7.166                0.992555347     -14.7887018
7.168                0.992515309     -14.8102885
7.17                 0.992481767     -14.8312415
7.172                0.992448172     -14.8521953
7.174                0.992414523     -14.8731499
7.176                0.992380819     -14.8941053
7.178                0.992359433     -14.9147336
7.18                 0.992338026     -14.9353628
7.182                0.992316597     -14.9559929
7.184                0.992295146     -14.9766238
7.186                0.992287772     -14.9973738
7.188                0.992280399     -15.0181245
7.19                 0.992273024     -15.0388761
7.192                 0.99226565     -15.0596283
7.194                0.992269799     -15.0808983
7.196                 0.99227397     -15.1021686
7.198                0.992278162     -15.1234392
7.2                  0.992282377     -15.1447103
7.202                 0.99229272     -15.1667367
7.204                0.992303099     -15.1887636
7.206                0.992313512      -15.210791
7.208                 0.99232396     -15.2328189
7.21                 0.992334697     -15.2556446
7.212                0.992345472     -15.2784714
7.214                0.992356283     -15.3012991
7.216                0.992367132     -15.3241278
7.218                0.992373679     -15.3476457
7.22                  0.99238027     -15.3711647
7.222                0.992386905     -15.3946848
7.224                0.992393583     -15.4182059
7.226                0.992393074     -15.4422488
7.228                 0.99239261     -15.4662932
7.23                 0.992392192     -15.4903392
7.232                0.992391818     -15.5143868
7.234                 0.99238279     -15.5387723
7.236                0.992373781     -15.5631603
7.238                0.992364792     -15.5875506
7.24                 0.992355822     -15.6119434
7.242                0.992337617     -15.6364909
7.244                0.992319391     -15.6610407
7.246                0.992301145      -15.685593
7.248                0.992282879     -15.7101477
7.25                  0.99225564     -15.7346516
7.252                0.992228355      -15.759157
7.254                0.992201023      -15.783664
7.256                0.992173646     -15.8081726
7.258                0.992139042      -15.832413
7.26                 0.992104375     -15.8566547
7.262                0.992069647     -15.8808977
7.264                0.992034856     -15.9051419
7.266                0.991996604     -15.9289291
7.268                0.991958272     -15.9527179
7.27                 0.991919861     -15.9765083
7.272                 0.99188137     -16.0003003
7.274                 0.99184504     -16.0235682
7.276                0.991808631     -16.0468376
7.278                0.991772144     -16.0701084
7.28                 0.991735578     -16.0933806
7.282                0.991707139     -16.1162526
7.284                0.991678654     -16.1391254
7.286                0.991650124     -16.1619989
7.288                0.991621547     -16.1848733
7.29                  0.99160517     -16.2076622
7.292                0.991588786     -16.2304518
7.294                0.991572395      -16.253242
7.296                0.991555995     -16.2760329
7.298                0.991552296     -16.2991475
7.3                  0.991548613     -16.3222628
7.302                0.991544947     -16.3453788
7.304                0.991541297     -16.3684955
7.306                0.991546872     -16.3922962
7.308                0.991552483     -16.4160973
7.31                 0.991558129     -16.4398988
7.312                 0.99156381     -16.4637009
7.314                0.991572599     -16.4883716
7.316                0.991581438     -16.5130427
7.318                0.991590329     -16.5377143
7.32                  0.99159927     -16.5623864
7.322                0.991604902     -16.5879017
7.324                0.991610583     -16.6134184
7.326                0.991616313     -16.6389364
7.328                0.991622092     -16.6644557
7.33                 0.991619944     -16.6906112
7.332                0.991617825     -16.7167689
7.334                0.991615736      -16.742929
7.336                0.991613677     -16.7690913
7.338                0.991601718     -16.7956233
7.34                 0.991589765     -16.8221581
7.342                0.991577818     -16.8486957
7.344                0.991565876     -16.8752361
7.346                0.991544441     -16.9018909
7.348                0.991522985     -16.9285486
7.35                 0.991501507     -16.9552091
7.352                0.991480008     -16.9818726
7.354                0.991450797     -17.0084685
7.356                0.991421536     -17.0350667
7.358                0.991392226     -17.0616672
7.36                 0.991362867     -17.0882702
7.362                0.991328209     -17.1146794
7.364                0.991293489     -17.1410899
7.366                0.991258706     -17.1675015
7.368                0.991223862     -17.1939144
7.37                 0.991186425     -17.2200535
7.372                0.991148928      -17.246193
7.374                0.991111371     -17.2723328
7.376                0.991073754     -17.2984732
7.378                 0.99103686     -17.3242945
7.38                 0.990999906     -17.3501166
7.382                0.990962892     -17.3759393
7.384                0.990925819     -17.4017627
7.386                0.990893412     -17.4273041
7.388                0.990860947     -17.4528466
7.39                 0.990828422     -17.4783902
7.392                0.990795837      -17.503935
7.394                0.990771692     -17.5293534
7.396                0.990747508     -17.5547727
7.398                0.990723284     -17.5801929
7.4                   0.99069902     -17.6056141
7.402                0.990685413     -17.6311864
7.404                0.990671801     -17.6567593
7.406                0.990658186     -17.6823329
7.408                0.990644566     -17.7079071
7.41                 0.990640968     -17.7339685
7.412                0.990637396     -17.7600306
7.414                 0.99063385     -17.7860932
7.416                 0.99063033     -17.8121566
7.418                0.990632979     -17.8389891
7.42                 0.990635671     -17.8658223
7.422                0.990638407     -17.8926561
7.424                0.990641187     -17.9194906
7.426                0.990644176     -17.9472177
7.428                0.990647218     -17.9749456
7.43                 0.990650313     -18.0026742
7.432                 0.99065346     -18.0304036
7.434                0.990650738     -18.0589438
7.436                0.990648059     -18.0874857
7.438                0.990645423     -18.1160292
7.44                 0.990642829     -18.1445743
7.442                0.990630294      -18.173674
7.444                0.990617766     -18.2027767
7.446                0.990605246     -18.2318822
7.448                0.990592734     -18.2609906
7.45                  0.99056923     -18.2903396
7.452                0.990545692     -18.3196921
7.454                0.990522121      -18.349048
7.456                0.990498514     -18.3784074
7.458                 0.99046575     -18.4077272
7.46                 0.990432923       -18.43705
7.462                0.990400035     -18.4663757
7.464                0.990367086     -18.4957044
7.466                0.990328399     -18.5248304
7.468                0.990289641     -18.5539583
7.47                 0.990250812     -18.5830879
7.472                0.990211912     -18.6122194
7.474                0.990171104     -18.6410943
7.476                 0.99013023     -18.6699698
7.478                0.990089291     -18.6988458
7.48                 0.990048287     -18.7277224
7.482                0.990008671     -18.7563764
7.484                0.989969004     -18.7850301
7.486                0.989929286     -18.8136835
7.488                0.989889516     -18.8423366
7.49                  0.98985381     -18.8708523
7.492                0.989818062     -18.8993677
7.494                0.989782274      -18.927883
7.496                0.989746445     -18.9563981
7.498                0.989716884     -18.9848906
7.5                  0.989687284     -19.0133837
7.502                0.989657646     -19.0418774
7.504                0.989627968     -19.0703716
7.506                0.989606183     -19.0990188
7.508                0.989584369      -19.127667
7.51                 0.989562525     -19.1563161
7.512                0.989540651     -19.1849662
7.514                0.989527085     -19.2139904
7.516                0.989513514     -19.2430155
7.518                 0.98949994     -19.2720413
7.52                 0.989486361     -19.3010681
7.522                0.989479486     -19.3307132
7.524                0.989472637     -19.3603592
7.526                0.989465814     -19.3900059
7.528                0.989459016     -19.4196535
7.53                  0.98945511     -19.4501066
7.532                0.989451246     -19.4805606
7.534                0.989447423     -19.5110156
7.536                0.989443642     -19.5414716
7.538                0.989437507     -19.5727838
7.54                 0.989431411     -19.6040972
7.542                0.989425357     -19.6354118
7.544                0.989419344     -19.6667276
7.546                0.989405875     -19.6987857
7.548                0.989392427     -19.7308456
7.55                    0.989379     -19.7629073
7.552                0.989365594     -19.7949707
7.554                0.989341559     -19.8275079
7.556                0.989317505     -19.8600479
7.558                0.989293431     -19.8925905
7.56                 0.989269337     -19.9251359
7.562                0.989234435     -19.9578346
7.564                0.989199467     -19.9905365
7.566                0.989164433     -20.0232416
7.568                0.989129332     -20.0559499
7.57                 0.989086137     -20.0885443
7.572                0.989042849     -20.1211413
7.574                0.988999469     -20.1537408
7.576                0.988955997     -20.1863428
7.578                 0.98890881     -20.2186943
7.58                 0.988861535     -20.2510468
7.582                0.988814172     -20.2834004
7.584                0.988766722     -20.3157551
7.586                0.988720112     -20.3478707
7.588                0.988673436     -20.3799859
7.59                 0.988626694     -20.4121009
7.592                0.988579887     -20.4442155
7.594                0.988537411     -20.4762111
7.596                0.988494893     -20.5082056
7.598                0.988452332      -20.540199
7.6                   0.98840973     -20.5721915
7.602                0.988373489     -20.6042396
7.604                0.988337221     -20.6362867
7.606                0.988300927     -20.6683329
7.608                0.988264606     -20.7003781
7.61                  0.98823537     -20.7326573
7.612                0.988206113     -20.7649364
7.614                0.988176834     -20.7972153
7.616                0.988147533      -20.829494
7.618                0.988125085     -20.8621875
7.62                 0.988102619     -20.8948816
7.622                0.988080135     -20.9275765
7.624                0.988057632     -20.9602722
7.626                0.988040784     -20.9935492
7.628                 0.98802393     -21.0268274
7.63                  0.98800707     -21.0601067
7.632                0.987990206     -21.0933873
7.634                0.987976637     -21.1273979
7.636                0.987963082     -21.1614099
7.638                 0.98794954     -21.1954231
7.64                 0.987936012     -21.2294377
7.642                0.987922179     -21.2642725
7.644                 0.98790837     -21.2991086
7.646                0.987894584     -21.3339461
7.648                 0.98788082     -21.3687851
7.65                 0.987862505     -21.4044264
7.652                0.987844205     -21.4400691
7.654                 0.98782592     -21.4757131
7.656                0.987807649     -21.5113585
7.658                0.987781025     -21.5476662
7.66                 0.987754389     -21.5839752
7.662                0.987727743     -21.6202856
7.664                0.987701087     -21.6565973
7.666                0.987664053     -21.6933193
7.668                 0.98762697     -21.7300429
7.67                 0.987589839     -21.7667681
7.672                0.987552659     -21.8034949
7.674                0.987505712     -21.8403421
7.676                0.987458675     -21.8771911
7.678                 0.98741155      -21.914042
7.68                 0.987364334     -21.9508946
7.682                0.987310531     -21.9876352
7.684                0.987256615      -22.024377
7.686                0.987202587     -22.0611201
7.688                0.987148447     -22.0978646
7.69                 0.987092419     -22.1343987
7.692                0.987036288     -22.1709329
7.694                0.986980053      -22.207467
7.696                0.986923715     -22.2440013
7.698                0.986870191      -22.280387
7.7                  0.986816595     -22.3167714
7.702                0.986762927     -22.3531545
7.704                0.986709187     -22.3895363
7.706                0.986661603     -22.4259413
7.708                0.986613979     -22.4623441
7.71                 0.986566316     -22.4987449
7.712                0.986518613     -22.5351437
7.714                0.986478474     -22.5717996
7.716                0.986438315     -22.6084534
7.718                0.986398138     -22.6451052
7.72                 0.986357942     -22.6817551
7.722                 0.98632495      -22.718877
7.724                0.986291948     -22.7559976
7.726                0.986258934     -22.7931171
7.728                0.986225909     -22.8302353
7.73                   0.9861984     -22.8680087
7.732                0.986170881     -22.9057821
7.734                0.986143351     -22.9435557
7.736                0.986115811     -22.9813294
7.738                0.986091367      -23.019875
7.74                 0.986066911     -23.0584219
7.742                0.986042444     -23.0969701
7.744                0.986017966     -23.1355196
7.746                0.985993604     -23.1749057
7.748                0.985969231     -23.2142935
7.75                 0.985944846     -23.2536832
7.752                 0.98592045     -23.2930748
7.754                0.985892902     -23.3333048
7.756                 0.98586534     -23.3735364
7.758                0.985837763     -23.4137697
7.76                 0.985810173     -23.4540047
7.762                0.985776221     -23.4950055
7.764                0.985742243     -23.5360074
7.766                0.985708239     -23.5770102
7.768                0.985674209     -23.6180139
7.77                 0.985631367     -23.6596177
7.772                0.985588477     -23.7012214
7.774                0.985545539     -23.7428251
7.776                0.985502553     -23.7844289
7.778                0.985449992     -23.8264049
7.78                 0.985397354     -23.8683803
7.782                 0.98534464     -23.9103549
7.784                 0.98529185     -23.9523289
7.786                0.985230846     -23.9944373
7.788                0.985169737     -24.0365449
7.79                 0.985108522     -24.0786515
7.792                0.985047201     -24.1207573
7.794                0.984981155     -24.1628239
7.796                0.984914984     -24.2048895
7.798                 0.98484869     -24.2469541
7.8                  0.984782273     -24.2890177
7.802                0.984715675     -24.3309965
7.804                0.984648959     -24.3729735
7.806                0.984582126      -24.414949
7.808                0.984515176     -24.4569229
7.81                 0.984452494     -24.4989081
7.812                0.984389725     -24.5408906
7.814                 0.98432687     -24.5828705
7.816                0.984263927     -24.6248477
7.818                0.984208112      -24.667043
7.82                 0.984152249     -24.7092349
7.822                0.984096337     -24.7514232
7.824                0.984040377      -24.793608
7.826                0.983992376     -24.8362734
7.828                0.983944356     -24.8789351
7.83                 0.983896317     -24.9215931
7.832                 0.98384826     -24.9642477
7.834                0.983806946     -25.0076218
7.836                0.983765625     -25.0509931
7.838                0.983724299     -25.0943616
7.84                 0.983682965     -25.1377272
7.842                0.983645693     -25.1819836
7.844                0.983608412     -25.2262387
7.846                0.983571121     -25.2704925
7.848                 0.98353382      -25.314745
7.85                 0.983497236     -25.3599809
7.852                0.983460627     -25.4052172
7.854                0.983423992      -25.450454
7.856                0.983387331     -25.4956913
7.858                0.983347922       -25.54191
7.86                 0.983308465     -25.5881303
7.862                 0.98326896     -25.6343521
7.864                0.983229407     -25.6805758
7.866                 0.98318391     -25.7277013
7.868                0.983138345      -25.774828
7.87                 0.983092712     -25.8219561
7.872                 0.98304701     -25.8690854
7.874                0.982992992     -25.9169937
7.876                 0.98293889     -25.9649015
7.878                0.982884706     -26.0128088
7.88                 0.982830439     -26.0607156
7.882                0.982766693     -26.1092038
7.884                0.982702855      -26.157689
7.886                0.982638925     -26.2061713
7.888                0.982574904     -26.2546507
7.89                 0.982501827     -26.3035054
7.892                0.982428647     -26.3523552
7.894                0.982355364     -26.4012002
7.896                0.982281977     -26.4500405
7.898                0.982201878     -26.4990673
7.9                   0.98212166     -26.5480887
7.902                0.982041322     -26.5971046
7.904                0.981960864      -26.646115
7.906                 0.98187757     -26.6952066
7.908                0.981794141     -26.7442929
7.91                 0.981710579     -26.7933741
7.912                0.981626882     -26.8424502
7.914                 0.98154473     -26.8916234
7.916                0.981462443     -26.9407918
7.918                0.981380022     -26.9899555
7.92                 0.981297464     -27.0391146
7.922                0.981220344     -27.0885102
7.924                 0.98114311      -27.137901
7.926                0.981065762     -27.1872868
7.928                0.980988299     -27.2366679
7.93                 0.980918508     -27.2865243
7.932                0.980848641      -27.336375
7.934                0.980778699       -27.38622
7.936                0.980708683     -27.4360595
7.938                0.980646483     -27.4866477
7.94                 0.980584248     -27.5372296
7.942                0.980521979     -27.5878052
7.944                0.980459675     -27.6383746
7.946                0.980403245      -27.689939
7.948                0.980346802     -27.7414975
7.95                 0.980290346       -27.79305
7.952                0.980233878     -27.8445965
7.954                0.980179961     -27.8973066
7.956                0.980126026     -27.9500122
7.958                0.980072072     -28.0027133
7.96                 0.980018099     -28.0554099
7.962                0.979962651      -28.109338
7.964                0.979907153     -28.1632637
7.966                0.979851604     -28.2171868
7.968                0.979796005     -28.2711075
7.97                 0.979735039     -28.3262206
7.972                0.979673977     -28.3813328
7.974                0.979612819      -28.436444
7.976                0.979551564     -28.4915545
7.978                0.979481725     -28.5477225
7.98                 0.979411746     -28.6038892
7.982                0.979341629      -28.660055
7.984                0.979271373     -28.7162198
7.986                0.979190585     -28.7732544
7.988                0.979109635     -28.8302854
7.99                 0.979028524     -28.8873127
7.992                0.978947253     -28.9443364
7.994                 0.97885527     -29.0020047
7.996                0.978763132     -29.0596648
7.998                0.978670841      -29.117317
8                    0.978578394     -29.1749611
8.002                0.978476909      -29.233042
8.004                0.978375291     -29.2911106
8.006                 0.97827354      -29.349167
8.008                0.978171657     -29.4072111
8.01                 0.978064134     -29.4655627
8.012                0.977956494     -29.5238996
8.014                0.977848737     -29.5822221
8.016                0.977740862       -29.64053
8.018                0.977631851     -29.6990965
8.02                 0.977522725     -29.7576484
8.022                0.977413483     -29.8161856
8.024                0.977304127     -29.8747081
8.026                0.977197921     -29.9336005
8.028                0.977091597     -29.9924792
8.03                 0.976985155     -30.0513444
8.032                0.976878596     -30.1101962
8.034                0.976778508     -30.1696071
8.036                0.976678309     -30.2290054
8.038                   0.976578     -30.2883914
8.04                 0.976477579     -30.3477649
8.042                0.976384922     -30.4079819
8.044                0.976292174     -30.4681869
8.046                0.976199335     -30.5283798
8.048                0.976106407     -30.5885609
8.05                 0.976020413     -30.6498666
8.052                0.975934354     -30.7111607
8.054                0.975848229     -30.7724428
8.056                0.975762036     -30.8337133
8.058                0.975680218     -30.8963284
8.06                  0.97559834     -30.9589323
8.062                0.975516404      -31.021525
8.064                0.975434407     -31.0841065
8.066                0.975352978     -31.1482012
8.068                0.975271467     -31.2122865
8.07                 0.975189873     -31.2763625
8.072                0.975108196     -31.3404294
8.074                0.975022778     -31.4060344
8.076                0.974937225     -31.4716326
8.078                0.974851538     -31.5372241
8.08                 0.974765715      -31.602809
8.082                0.974672012     -31.6698796
8.084                0.974578108     -31.7369454
8.086                0.974484003     -31.8040065
8.088                0.974389696     -31.8710631
8.09                 0.974284107     -31.9394469
8.092                0.974178262      -32.007825
8.094                0.974072164     -32.0761975
8.096                 0.97396581     -32.1445646
8.098                0.973846385     -32.2140092
8.1                  0.973726706     -32.2834418
8.102                0.973606775     -32.3528624
8.104                 0.97348659     -32.4222713
8.106                0.973353619     -32.4925102
8.108                 0.97322047     -32.5627261
8.11                 0.973087147     -32.6329188
8.112                0.972953648     -32.7030886
8.114                0.972810083     -32.7738912
8.116                0.972666466     -32.8446589
8.118                0.972522799     -32.9153914
8.12                 0.972379081     -32.9860885
8.122                0.972229943     -33.0573021
8.124                0.972080854     -33.1284727
8.126                0.971931809     -33.1995999
8.128                0.971782805     -33.2706835
8.13                 0.971633835     -33.3423589
8.132                0.971484932     -33.4139889
8.134                0.971336091     -33.4855731
8.136                0.971187305     -33.5571114
8.138                 0.97104346     -33.6294456
8.14                 0.970899676     -33.7017333
8.142                0.970755945     -33.7739744
8.144                 0.97061226     -33.8461684
8.146                 0.97047586     -33.9195164
8.148                0.970339667     -33.9928026
8.15                 0.970203661     -34.0660262
8.152                0.970067821     -34.1391865
8.154                0.969937159     -34.2141063
8.156                0.969808101     -34.2888216
8.158                0.969680252     -34.3633212
8.16                 0.969553196     -34.4375974
8.162                  0.9694166     -34.5147284
8.164                0.969292092     -34.5914278
8.166                0.969174835     -34.6674145
8.168                0.969058455     -34.7425761
8.17                 0.968930783     -34.8209507
8.172                0.968806595     -34.8991676
8.174                0.968685572     -34.9771948
8.176                0.968567328     -35.0550038
8.178                0.968440184     -35.1351489
8.18                 0.968313468     -35.2152362
8.182                0.968187167     -35.2952646
8.184                0.968061264     -35.3752329
8.186                0.967926155     -35.4573062
8.188                 0.96779114     -35.5393353
8.19                 0.967656216     -35.6213196
8.192                0.967521377     -35.7032589
8.194                0.967373704      -35.787206
8.196                0.967226057     -35.8711051
8.198                0.967078435     -35.9549556
8.2                  0.966930832     -36.0387573