! TOUCHSTONE file generated by CST DESIGN STUDIO
! Date and time: Mon Feb 10 16:47:04 2025
! Project name: C:\Work\MatlabApps\UnitCellType2OptimizationMatlab\CST\unitcell.cst
! Tree item: Tasks\Sweep1\SPara1\S-Parameters
! Header version: 2024
! Port assignment regex: !\s*Touchstone port\s*([0-9]+)\s*=\s*(CST MWS port|CST DES external port|CST DES block port)\s*(.+)\s* \(\"(.*)\"\)(\s*mode\s*([0-9]+))?.*
! Touchstone port assignment:
! Touchstone port 1 = CST DES external port 1 ("")
# GHz S MA R 50
7                    0.989301709     -6.86884983
7.002                0.989310722     -6.89454489
7.004                0.989320269     -6.92020923
7.006                0.989330346     -6.94584302
7.008                0.989340948     -6.97144639
7.01                  0.98935038     -6.99664694
7.012                0.989359422     -7.02181684
7.014                0.989368076     -7.04695647
7.016                0.989376346     -7.07206628
7.018                0.989379574     -7.09746688
7.02                  0.98938268     -7.12281905
7.022                0.989385664     -7.14812325
7.024                0.989388527     -7.17337991
7.026                0.989371059     -7.19881742
7.028                0.989353707     -7.22422083
7.03                  0.98933647     -7.24959034
7.032                0.989319348     -7.27492618
7.034                0.989275069     -7.29931742
7.036                0.989230178     -7.32369158
7.038                0.989184679     -7.34804882
7.04                 0.989138577     -7.37238919
7.042                0.989078831     -7.39444473
7.044                0.989018277     -7.41647374
7.046                0.988956921      -7.4384764
7.048                0.988894771     -7.46045271
7.05                 0.988848324     -7.47963561
7.052                0.988801721     -7.49879268
7.054                0.988754963     -7.51792421
7.056                0.988708052      -7.5370305
7.058                0.988707746     -7.55423668
7.06                 0.988707416     -7.57143405
7.062                0.988707056      -7.5886229
7.064                0.988706666     -7.60580331
7.066                 0.98876739     -7.62317549
7.068                0.988827802     -7.64053508
7.07                   0.9888879     -7.65788223
7.072                0.988947686     -7.67521709
7.074                0.989054266     -7.69500369
7.076                0.989160823     -7.71475798
7.078                0.989267359     -7.73448028
7.08                 0.989373875     -7.75417108
7.082                0.989489847      -7.7774519
7.084                 0.98960603     -7.80069737
7.086                0.989722423     -7.82390784
7.088                0.989839024     -7.84708392
7.09                 0.989927159     -7.87327927
7.092                0.990014963      -7.8994386
7.094                0.990102439     -7.92556216
7.096                0.990189589     -7.95165022
7.098                0.990228992     -7.97902783
7.1                   0.99026794     -8.00635177
7.102                0.990306443     -8.03362231
7.104                0.990344508     -8.06083983
7.106                0.990338405     -8.08753048
7.108                0.990332622     -8.11416723
7.11                 0.990327159     -8.14075063
7.112                0.990322015      -8.1672812
7.114                0.990292244     -8.19224343
7.116                0.990263024     -8.21718112
7.118                0.990234354     -8.24209447
7.12                 0.990206229     -8.26698355
7.122                 0.99017561     -8.29034122
7.124                0.990144902     -8.31368884
7.126                0.990114106     -8.33702651
7.128                0.990083224     -8.36035424
7.13                 0.990060834     -8.38287464
7.132                0.990038133     -8.40537177
7.134                0.990015119     -8.42784591
7.136                0.989991795     -8.45029729
7.138                0.989973084     -8.47254335
7.14                 0.989954383     -8.49476319
7.142                0.989935691     -8.51695697
7.144                0.989917008     -8.53912484
7.146                 0.98989508     -8.56098193
7.148                0.989872912     -8.58282853
7.15                 0.989850505     -8.60466472
7.152                 0.98982786     -8.62649054
7.154                0.989803452     -8.64738688
7.156                0.989778281     -8.66827473
7.158                0.989752353     -8.68915409
7.16                 0.989725673     -8.71002486
7.162                0.989710901     -8.72954562
7.164                0.989695617     -8.74904831
7.166                0.989679825     -8.76853305
7.168                0.989663529     -8.78799994
7.17                 0.989676957     -8.80651391
7.172                0.989690437     -8.82501401
7.174                0.989703965      -8.8435005
7.176                0.989717543     -8.86197353
7.178                0.989771012     -8.88075264
7.18                  0.98982462     -8.89952482
7.182                0.989878363     -8.91829015
7.184                0.989932242     -8.93704869
7.186                0.990018038     -8.95770358
7.188                0.990103954      -8.9783429
7.19                 0.990189989     -8.99896683
7.192                0.990276144     -9.01957567
7.194                0.990367718     -9.04305528
7.196                0.990459585     -9.06650965
7.198                0.990551743     -9.08993899
7.2                  0.990644188     -9.11334374
7.202                0.990710187     -9.13932118
7.204                0.990776316      -9.1652744
7.206                0.990842573     -9.19120356
7.208                0.990908959     -9.21710883
7.21                 0.990929349     -9.24414941
7.212                0.990949481     -9.27116413
7.214                 0.99096936     -9.29815301
7.216                 0.99098899     -9.32511621
7.218                0.990963917     -9.35143522
7.22                 0.990938701     -9.37772554
7.222                0.990913346     -9.40398742
7.224                0.990887853     -9.43022105
7.226                0.990836263     -9.45457427
7.228                0.990784827     -9.47891128
7.23                 0.990733544     -9.50323224
7.232                0.990682412     -9.52753716
7.234                0.990630387     -9.54974542
7.236                0.990578325      -9.5719514
7.238                0.990526227      -9.5941551
7.24                 0.990474093     -9.61635643
7.242                0.990439549     -9.63716627
7.244                0.990404713     -9.65796864
7.246                0.990369585     -9.67876363
7.248                0.990334166     -9.69955135
7.25                  0.99031997     -9.71995049
7.252                0.990305695     -9.74033237
7.254                 0.99029134     -9.76069713
7.256                0.990276905     -9.78104486
7.258                0.990275984     -9.80160284
7.26                 0.990275084     -9.82214973
7.262                0.990274205     -9.84268558
7.264                0.990273348     -9.86321046
7.266                0.990278603     -9.88390047
7.268                0.990283466     -9.90458697
7.27                 0.990287942     -9.92526997
7.272                0.990292031     -9.94594945
7.274                0.990303062     -9.96648318
7.276                0.990313538     -9.98700674
7.278                0.990323461     -10.0075201
7.28                 0.990332836     -10.0280233
7.282                0.990356464     -10.0483654
7.284                0.990379974     -10.0686925
7.286                0.990403366     -10.0890045
7.288                 0.99042664     -10.1093018
7.29                 0.990470183     -10.1299926
7.292                0.990513985     -10.1506744
7.294                0.990558042     -10.1713471
7.296                0.990602355     -10.1920108
7.298                0.990663503      -10.213988
7.3                  0.990724933     -10.2359576
7.302                0.990786645     -10.2579196
7.304                0.990848638     -10.2798741
7.306                0.990911194     -10.3038417
7.308                0.990974058     -10.3277944
7.31                 0.991037228     -10.3517325
7.312                0.991100702     -10.3756563
7.314                0.991141709     -10.4014682
7.316                0.991183015     -10.4272634
7.318                0.991224617     -10.4530419
7.32                 0.991266513     -10.4788039
7.322                0.991269345     -10.5053913
7.324                0.991272153     -10.5319667
7.326                0.991274942       -10.55853
7.328                0.991277711     -10.5850814
7.33                 0.991241371     -10.6109343
7.332                0.991204712     -10.6367774
7.334                0.991167735     -10.6626108
7.336                0.991130444     -10.6884345
7.338                0.991070636     -10.7123648
7.34                 0.991010545      -10.736289
7.342                0.990950173     -10.7602072
7.344                0.990889521     -10.7841193
7.346                0.990831096      -10.805823
7.348                0.990772464     -10.8275276
7.35                 0.990713628     -10.8492331
7.352                0.990654586     -10.8709395
7.354                0.990618487     -10.8910898
7.356                0.990582172     -10.9112402
7.358                0.990545639     -10.9313909
7.36                 0.990508889     -10.9515419
7.362                0.990502379     -10.9713063
7.364                0.990495834     -10.9910625
7.366                0.990489254     -11.0108106
7.368                0.990482638     -11.0305507
7.37                 0.990499082     -11.0509027
7.372                0.990515722     -11.0712451
7.374                0.990532559     -11.0915779
7.376                0.990549593     -11.1119012
7.378                0.990576702     -11.1331893
7.38                 0.990603816     -11.1544737
7.382                0.990630934     -11.1757545
7.384                0.990658057     -11.1970317
7.386                0.990686612     -11.2190609
7.388                0.990714813     -11.2410849
7.39                 0.990742662     -11.2631037
7.392                 0.99077016     -11.2851173
7.394                0.990798202     -11.3075578
7.396                0.990825983     -11.3299863
7.398                0.990853506     -11.3524028
7.4                  0.990880773     -11.3748073
7.402                0.990911554     -11.3976118
7.404                0.990942467     -11.4204056
7.406                0.990973514     -11.4431886
7.408                0.991004693     -11.4659611
7.41                 0.991039599     -11.4894688
7.412                0.991074823     -11.5129712
7.414                0.991110364     -11.5364682
7.416                0.991146222     -11.5599601
7.418                 0.99117854     -11.5845834
7.42                 0.991211171     -11.6091998
7.422                0.991244112     -11.6338094
7.424                 0.99127736     -11.6584124
7.426                0.991293575     -11.6841389
7.428                0.991310092      -11.709855
7.43                  0.99132691     -11.7355608
7.432                0.991344029     -11.7612564
7.434                0.991332378     -11.7874095
7.436                0.991320836      -11.813556
7.438                0.991309405      -11.839696
7.44                 0.991298083     -11.8658293
7.442                0.991257345     -11.8912957
7.444                0.991216308     -11.9167615
7.446                0.991174972      -11.942227
7.448                0.991133338      -11.967692
7.45                 0.991075538     -11.9914986
7.452                0.991017198     -12.0153073
7.454                 0.99095832      -12.039118
7.456                0.990898905     -12.0629307
7.458                0.990844931     -12.0847703
7.46                 0.990790511     -12.1066132
7.462                0.990735646     -12.1284595
7.464                0.990680336     -12.1503091
7.466                0.990649896     -12.1707526
7.468                0.990619249      -12.191199
7.47                 0.990588392     -12.2116484
7.472                0.990557325     -12.2321008
7.474                 0.99055919     -12.2523006
7.476                0.990561137     -12.2724986
7.478                0.990563164     -12.2926949
7.48                 0.990565271     -12.3128894
7.482                0.990593669      -12.333973
7.484                0.990622421     -12.3550509
7.486                0.990651525     -12.3761234
7.488                0.990680982     -12.3971905
7.49                 0.990721083      -12.419722
7.492                0.990761498     -12.4422499
7.494                0.990802225     -12.4647742
7.496                0.990843262      -12.487295
7.498                0.990880356     -12.5111396
7.5                  0.990917396     -12.5349813
7.502                0.990954383     -12.5588201
7.504                0.990991316      -12.582656
7.506                0.991017673     -12.6072842
7.508                0.991043767     -12.6319052
7.51                 0.991069603      -12.656519
7.512                 0.99109518     -12.6811255
7.514                0.991111173     -12.7060595
7.516                 0.99112709     -12.7309849
7.518                0.991142933     -12.7559017
7.52                 0.991158703       -12.78081
7.522                0.991168288     -12.8059129
7.524                0.991178044      -12.831012
7.526                0.991187971     -12.8561074
7.528                0.991198066     -12.8811992
7.53                 0.991202295     -12.9066153
7.532                0.991206763     -12.9320292
7.534                0.991211469     -12.9574408
7.536                0.991216412       -12.98285
7.538                0.991210807      -13.008656
7.54                 0.991205453     -13.0344565
7.542                0.991200351     -13.0602518
7.544                  0.9911955     -13.0860417
7.546                0.991173777     -13.1119526
7.548                0.991152207      -13.137859
7.55                 0.991130794     -13.1637609
7.552                0.991109534     -13.1896585
7.554                0.991070455     -13.2150165
7.556                0.991031191     -13.2403759
7.558                 0.99099174     -13.2657366
7.56                 0.990952105     -13.2910987
7.562                0.990903589     -13.3152256
7.564                0.990854509     -13.3393581
7.566                0.990804864      -13.363496
7.568                0.990754657     -13.3876394
7.57                 0.990712061       -13.41029
7.572                0.990668857      -13.432946
7.574                0.990625046     -13.4556071
7.576                0.990580628     -13.4782734
7.578                0.990559791     -13.4998893
7.58                 0.990538671     -13.5215086
7.582                0.990517266     -13.5431313
7.584                0.990495576     -13.5647575
7.586                0.990504497     -13.5863382
7.588                0.990513576     -13.6079203
7.59                 0.990522812     -13.6295036
7.592                0.990532204     -13.6510884
7.594                0.990566095     -13.6737154
7.596                0.990600476     -13.6963411
7.598                0.990635347     -13.7189655
7.6                  0.990670709     -13.7415887
7.602                0.990714623     -13.7658869
7.604                0.990759078     -13.7901826
7.606                0.990804073     -13.8144758
7.608                0.990849607     -13.8387668
7.61                 0.990886627     -13.8646421
7.612                0.990923894     -13.8905153
7.614                0.990961407     -13.9163864
7.616                0.990999167     -13.9422554
7.618                0.991018534      -13.969073
7.62                 0.991037769     -13.9958879
7.622                0.991056873        -14.0227
7.624                0.991075846     -14.0495092
7.626                0.991076265     -14.0765181
7.628                0.991076432     -14.1035236
7.63                 0.991076347     -14.1305257
7.632                0.991076011     -14.1575244
7.634                0.991063223     -14.1842548
7.636                0.991050317     -14.2109838
7.638                0.991037293     -14.2377114
7.64                 0.991024152     -14.2644376
7.642                 0.99100503     -14.2908244
7.644                0.990985956     -14.3172117
7.646                0.990966931     -14.3435995
7.648                0.990947955     -14.3699879
7.65                 0.990925466     -14.3961831
7.652                0.990903128      -14.422377
7.654                0.990880941     -14.4485696
7.656                0.990858906     -14.4747608
7.658                0.990831771     -14.5008253
7.66                 0.990804808     -14.5268861
7.662                0.990778015     -14.5529433
7.664                0.990751394     -14.5789969
7.666                0.990718462     -14.6047198
7.668                0.990685515     -14.6304419
7.67                 0.990652553     -14.6561631
7.672                0.990619575     -14.6818836
7.674                0.990584497     -14.7069105
7.676                0.990549031     -14.7319419
7.678                0.990513178     -14.7569776
7.68                 0.990476938     -14.7820177
7.682                0.990448811     -14.8061839
7.684                0.990420079      -14.830356
7.686                0.990390742      -14.854534
7.688                0.990360801     -14.8787178
7.69                 0.990350279     -14.9023182
7.692                0.990339364     -14.9259224
7.694                0.990328053     -14.9495302
7.696                0.990316347     -14.9731417
7.698                0.990329251     -14.9969269
7.7                  0.990342268     -15.0207137
7.702                0.990355395     -15.0445021
7.704                0.990368633     -15.0682922
7.706                0.990401192     -15.0931506
7.708                0.990434322     -15.1180095
7.71                 0.990468022     -15.1428688
7.712                0.990502293     -15.1677287
7.714                0.990541392     -15.1942314
7.716                0.990581217     -15.2207335
7.718                0.990621768     -15.2472349
7.72                 0.990663043     -15.2737358
7.722                0.990692412     -15.3018127
7.724                0.990722289     -15.3298883
7.726                0.990752674     -15.3579627
7.728                0.990783567     -15.3860358
7.73                 0.990791679     -15.4150353
7.732                0.990799848     -15.4440343
7.734                0.990808075     -15.4730327
7.736                0.990816362     -15.5020306
7.738                 0.99080137      -15.531075
7.74                 0.990786045     -15.5601206
7.742                0.990770388     -15.5891673
7.744                0.990754401     -15.6182151
7.746                0.990723339     -15.6466434
7.748                0.990691829     -15.6750747
7.75                 0.990659869      -15.703509
7.752                 0.99062746      -15.731946
7.754                 0.99059098     -15.7595662
7.756                0.990554196     -15.7871896
7.758                 0.99051711     -15.8148162
7.76                 0.990479721     -15.8424459
7.762                0.990445994     -15.8694769
7.764                0.990412238     -15.8965082
7.766                0.990378452       -15.92354
7.768                0.990344636     -15.9505723
7.77                 0.990316309     -15.9773525
7.772                0.990288191     -16.0041295
7.774                0.990260282     -16.0309032
7.776                0.990232582     -16.0576737
7.778                0.990208548     -16.0843813
7.78                 0.990184741     -16.1110856
7.782                0.990161162     -16.1377866
7.784                0.990137811     -16.1644842
7.786                0.990117553     -16.1910751
7.788                 0.99009724     -16.2176668
7.79                 0.990076871     -16.2442593
7.792                0.990056447     -16.2708526
7.794                0.990042824     -16.2972396
7.796                0.990028789     -16.3236308
7.798                 0.99001434     -16.3500262
7.8                  0.989999479     -16.3764259
7.802                0.989997622     -16.4027378
7.804                0.989995311     -16.4290535
7.806                0.989992544     -16.4553726
7.808                0.989989321     -16.4816953
7.81                 0.990002508     -16.5083822
7.812                0.990015639     -16.5350703
7.814                0.990028713     -16.5617594
7.816                 0.99004173     -16.5884495
7.818                 0.99006706     -16.6161222
7.82                 0.990092903     -16.6437947
7.822                0.990119259     -16.6714671
7.824                0.990146128     -16.6991395
7.826                0.990173663     -16.7282349
7.828                0.990202053     -16.7573299
7.83                 0.990231297     -16.7864245
7.832                0.990261393     -16.8155188
7.834                0.990277664     -16.8459846
7.836                0.990294697     -16.8764494
7.838                0.990312492     -16.9069131
7.84                 0.990331049     -16.9373757
7.842                0.990325804     -16.9686207
7.844                0.990320859     -16.9998651
7.846                0.990316216     -17.0311088
7.848                0.990311874     -17.0623518
7.85                 0.990283504     -17.0935116
7.852                0.990254837      -17.124674
7.854                0.990225871     -17.1558391
7.856                0.990196608     -17.1870068
7.858                0.990152735      -17.217363
7.86                 0.990108122     -17.2477257
7.862                0.990062769     -17.2780948
7.864                0.990016675     -17.3084701
7.866                0.989969726     -17.3377756
7.868                0.989922002     -17.3670874
7.87                 0.989873501     -17.3964052
7.872                0.989824224     -17.4257292
7.874                0.989785118     -17.4542606
7.876                0.989745645     -17.4827934
7.878                0.989705802     -17.5113276
7.88                  0.98966559     -17.5398633
7.882                0.989639239     -17.5681526
7.884                 0.98961311     -17.5964382
7.886                0.989587203       -17.62472
7.888                0.989561518      -17.652998
7.89                 0.989546552     -17.6815194
7.892                0.989532171     -17.7100352
7.894                0.989518378     -17.7385455
7.896                0.989505171     -17.7670501
7.898                0.989497635     -17.7960021
7.9                  0.989490575     -17.8249507
7.902                 0.98948399     -17.8538958
7.904                0.989477881     -17.8828376
7.906                0.989475196     -17.9121878
7.908                0.989472527     -17.9415382
7.91                 0.989469877     -17.9708889
7.912                0.989467244     -18.0002398
7.914                0.989469607     -18.0299459
7.916                0.989471603      -18.059654
7.918                 0.98947323     -18.0893642
7.92                 0.989474488     -18.1190764
7.922                0.989482925     -18.1492722
7.924                0.989491057     -18.1794688
7.926                0.989498882     -18.2096661
7.928                0.989506402     -18.2398641
7.93                  0.98951916     -18.2708587
7.932                0.989532142     -18.3018517
7.934                0.989545348     -18.3328431
7.936                0.989558778     -18.3638329
7.938                0.989569528     -18.3958972
7.94                 0.989581114     -18.4279589
7.942                0.989593536     -18.4600178
7.944                0.989606791     -18.4920742
7.946                0.989606234     -18.5251718
7.948                0.989606735     -18.5582663
7.95                 0.989608294     -18.5913576
7.952                0.989610912     -18.6244455
7.954                0.989591578     -18.6581158
7.956                0.989572958     -18.6917825
7.958                0.989555054     -18.7254456
7.96                 0.989537865     -18.7591048
7.962                0.989498888     -18.7926128
7.964                0.989459878     -18.8261196
7.966                0.989420835     -18.8596254
7.968                0.989381758       -18.89313
7.97                  0.98933062     -18.9258153
7.972                0.989278623     -18.9585059
7.974                0.989225765     -18.9912019
7.976                0.989172046     -19.0239031
7.978                0.989121302     -19.0555273
7.98                 0.989069218     -19.0871605
7.982                0.989015793     -19.1188028
7.984                0.988961024     -19.1504539
7.986                0.988922062     -19.1813213
7.988                0.988882023      -19.212193
7.99                 0.988840902      -19.243069
7.992                0.988798696     -19.2739493
7.994                0.988776623      -19.304711
7.996                0.988754465     -19.3354682
7.998                0.988732223      -19.366221
8                    0.988709894     -19.3969695
8.002                0.988702315     -19.4282752
8.004                0.988695825     -19.4595717
8.006                0.988690425     -19.4908589
8.008                0.988686118     -19.5221368
8.01                 0.988686286     -19.5543485
8.012                0.988688201     -19.5865516
8.014                0.988691866     -19.6187459
8.016                0.988697283     -19.6509313
8.018                 0.98869863     -19.6840347
8.02                 0.988701632     -19.7171311
8.022                 0.98870629     -19.7502204
8.024                0.988712608     -19.7833023
8.026                0.988711719     -19.8171006
8.028                0.988711981     -19.8508925
8.03                 0.988713396      -19.884678
8.032                0.988715963     -19.9184571
8.034                0.988712673     -19.9527789
8.036                0.988710124     -19.9870941
8.038                0.988708317     -20.0214028
8.04                 0.988707251     -20.0557049
8.042                0.988701745     -20.0905672
8.044                0.988696937     -20.1254221
8.046                0.988692828     -20.1602693
8.048                0.988689418      -20.195109
8.05                  0.98867962     -20.2306182
8.052                0.988670706     -20.2661186
8.054                 0.98866268       -20.30161
8.056                 0.98865554     -20.3370924
8.058                0.988636913      -20.373235
8.06                 0.988619152     -20.4093678
8.062                0.988602259     -20.4454909
8.064                0.988586236      -20.481604
8.066                0.988554508      -20.518104
8.068                0.988523072     -20.5545962
8.07                 0.988491929     -20.5910806
8.072                0.988461077     -20.6275571
8.074                0.988416197     -20.6638778
8.076                0.988370489     -20.7001991
8.078                0.988323954     -20.7365212
8.08                 0.988276589      -20.772844
8.082                0.988224806       -20.80848
8.084                0.988170914     -20.8441301
8.086                0.988114907      -20.879794
8.088                0.988056778     -20.9154715
8.09                 0.988008449     -20.9502529
8.092                0.987957358     -20.9850526
8.094                0.987903494     -21.0198704
8.096                0.987846852     -21.0547056
8.098                0.987810983     -21.0889423
8.1                  0.987773353     -21.1231829
8.102                0.987733956      -21.157427
8.104                0.987692786     -21.1916746
8.106                0.987672186     -21.2260456
8.108                  0.9876529     -21.2603983
8.11                  0.98763493     -21.2947327
8.112                0.987618279     -21.3290486
8.114                0.987608891     -21.3642622
8.116                0.987604878     -21.3994474
8.118                0.987606253     -21.4346017
8.12                 0.987613026     -21.4697228
8.122                0.987607283      -21.506198
8.124                0.987609837     -21.5426408
8.126                0.987620701     -21.5790449
8.128                0.987639885     -21.6154038
8.13                 0.987630376     -21.6531625
8.132                0.987629865     -21.6908711
8.134                0.987638359     -21.7285208
8.136                0.987655854     -21.7661034
8.138                0.987636731     -21.8048247
8.14                 0.987626611     -21.8434604
8.142                0.987625481     -21.8820013
8.144                0.987633332     -21.9204379
8.146                0.987595873     -21.9598153
8.148                0.987572477     -21.9990149
8.15                 0.987563081     -22.0380136
8.152                0.987567611     -22.0767888
8.154                0.987450507     -22.1177277
8.156                0.987396777     -22.1578876
8.158                0.987404055     -22.1968422
8.16                 0.987469196     -22.2341881
8.162                0.987087138     -22.2733681
8.164                 0.98694481     -22.3173835
8.166                0.987048615      -22.359168
8.168                 0.98734887     -22.3924843
8.17                 0.987199185     -22.4310207
8.172                 0.98712367     -22.4708352
8.174                 0.98712568     -22.5113227
8.176                0.987207131     -22.5518634
8.178                0.987141873      -22.591841
8.18                 0.987091685     -22.6318765
8.182                 0.98705666     -22.6719458
8.184                0.987036876     -22.7120254
8.186                0.986974657     -22.7520224
8.188                0.986920443     -22.7920147
8.19                 0.986874267      -22.831995
8.192                 0.98683616     -22.8719564
8.194                0.986770506     -22.9116364
8.196                0.986712614     -22.9512848
8.198                0.986662519      -22.990895
8.2                  0.986620242     -23.0304599